<?xml version="1.0" encoding="UTF-8"?>

<<<<<<< HEAD
<!-- generated on 2022-12-04 18:07:46 by Eclipse SUMO GUI Version 1.14.1
=======
<!-- generated on 2022-12-04 17:26:38 by Eclipse SUMO GUI Version 1.14.1
>>>>>>> e9ad27f2b33e40028e9754b8bf8e2a1805d38a45
<configuration xmlns:xsi="http://www.w3.org/2001/XMLSchema-instance" xsi:noNamespaceSchemaLocation="http://sumo.dlr.de/xsd/sumoConfiguration.xsd">

    <input>
        <net-file value="verticalNetwork.net.xml"/>
        <route-files value="routes.rou.xml"/>
        <additional-files value="additionals.add.xml"/>
    </input>

    <time>
        <begin value="0"/>
        <end value="320"/>
    </time>

    <processing>
        <lateral-resolution value="0.5"/>
    </processing>

    <traci_server>
        <remote-port value="58375"/>
    </traci_server>

</configuration>
-->

<meandata xmlns:xsi="http://www.w3.org/2001/XMLSchema-instance" xsi:noNamespaceSchemaLocation="http://sumo.dlr.de/xsd/meandata_file.xsd">
<<<<<<< HEAD
=======
    <interval begin="0.00" end="227.00" id="OtherData">
        <edge id="-E1" sampledSeconds="126.37" traveltime="7.56" overlapTraveltime="7.94" density="6.21" laneDensity="3.11" occupancy="1.46" waitingTime="0.00" timeLoss="18.38" speed="11.92" speedRelative="0.86" departed="0" arrived="16" entered="16" left="0" laneChangedFrom="0" laneChangedTo="0"/>
        <edge id="-E10" sampledSeconds="133.18" traveltime="7.11" overlapTraveltime="7.48" density="6.55" laneDensity="3.27" occupancy="1.55" waitingTime="0.00" timeLoss="12.55" speed="12.64" speedRelative="0.91" departed="0" arrived="18" entered="18" left="0" laneChangedFrom="0" laneChangedTo="0"/>
        <edge id="-E2" sampledSeconds="1075.66" traveltime="84.91" overlapTraveltime="89.64" density="59.83" laneDensity="29.92" occupancy="14.22" waitingTime="820.00" timeLoss="994.95" speed="0.94" speedRelative="0.07" departed="0" arrived="0" entered="12" left="12" laneChangedFrom="8" laneChangedTo="8"/>
        <edge id="-E3" sampledSeconds="1950.13" traveltime="87.83" overlapTraveltime="93.01" density="108.47" laneDensity="54.24" occupancy="25.94" waitingTime="1487.00" timeLoss="1820.89" speed="0.91" speedRelative="0.07" departed="0" arrived="0" entered="24" left="17" laneChangedFrom="14" laneChangedTo="14"/>
        <edge id="-E4" sampledSeconds="1622.97" traveltime="64.21" overlapTraveltime="67.48" density="79.80" laneDensity="39.90" occupancy="19.23" waitingTime="1137.00" timeLoss="1449.98" speed="1.40" speedRelative="0.10" departed="27" arrived="0" entered="0" left="22" laneChangedFrom="13" laneChangedTo="13"/>
        <edge id="-E5" sampledSeconds="204.96" traveltime="23.37" overlapTraveltime="24.07" density="10.08" laneDensity="5.04" occupancy="2.48" waitingTime="96.00" timeLoss="146.45" speed="3.93" speedRelative="0.28" departed="9" arrived="0" entered="0" left="9" laneChangedFrom="0" laneChangedTo="0"/>
        <edge id="-E6" sampledSeconds="1601.85" traveltime="36.33" overlapTraveltime="37.63" density="78.76" laneDensity="39.38" occupancy="19.22" waitingTime="751.00" timeLoss="1297.48" speed="2.51" speedRelative="0.18" departed="45" arrived="0" entered="0" left="45" laneChangedFrom="22" laneChangedTo="22"/>
        <edge id="-E7" sampledSeconds="1828.73" traveltime="52.83" overlapTraveltime="53.69" density="89.91" laneDensity="44.96" occupancy="22.26" waitingTime="1070.00" timeLoss="1583.59" speed="1.76" speedRelative="0.13" departed="36" arrived="0" entered="0" left="36" laneChangedFrom="19" laneChangedTo="19"/>
        <edge id="-E8" sampledSeconds="3109.17" traveltime="109.01" overlapTraveltime="113.51" density="152.87" laneDensity="76.43" occupancy="37.37" waitingTime="2242.00" timeLoss="2914.14" speed="0.83" speedRelative="0.06" departed="38" arrived="0" entered="0" left="21" laneChangedFrom="14" laneChangedTo="14"/>
        <edge id="-E9" sampledSeconds="913.14" traveltime="33.89" overlapTraveltime="35.75" density="44.90" laneDensity="22.45" occupancy="10.78" waitingTime="462.00" timeLoss="728.63" speed="2.65" speedRelative="0.19" departed="27" arrived="0" entered="0" left="27" laneChangedFrom="12" laneChangedTo="12"/>
        <edge id="E1" sampledSeconds="1417.54" traveltime="32.61" overlapTraveltime="33.30" density="69.70" laneDensity="34.85" occupancy="17.23" waitingTime="665.00" timeLoss="1123.70" speed="2.84" speedRelative="0.20" departed="45" arrived="0" entered="0" left="45" laneChangedFrom="17" laneChangedTo="17"/>
        <edge id="E10" sampledSeconds="2955.02" traveltime="93.60" overlapTraveltime="96.75" density="145.29" laneDensity="72.64" occupancy="35.67" waitingTime="2050.00" timeLoss="2744.64" speed="0.98" speedRelative="0.07" departed="36" arrived="0" entered="0" left="25" laneChangedFrom="19" laneChangedTo="19"/>
        <edge id="E2" sampledSeconds="1941.73" traveltime="41.44" overlapTraveltime="43.15" density="108.00" laneDensity="54.00" occupancy="26.05" waitingTime="1158.00" timeLoss="1655.26" speed="1.95" speedRelative="0.14" departed="0" arrived="0" entered="45" left="45" laneChangedFrom="21" laneChangedTo="21"/>
        <edge id="E3" sampledSeconds="1566.84" traveltime="32.81" overlapTraveltime="34.35" density="87.15" laneDensity="43.58" occupancy="21.00" waitingTime="906.00" timeLoss="1277.38" speed="2.45" speedRelative="0.18" departed="0" arrived="0" entered="49" left="40" laneChangedFrom="31" laneChangedTo="31"/>
        <edge id="E4" sampledSeconds="202.40" traveltime="7.18" overlapTraveltime="7.56" density="9.95" laneDensity="4.98" occupancy="2.35" waitingTime="0.00" timeLoss="20.07" speed="12.51" speedRelative="0.90" departed="0" arrived="27" entered="27" left="0" laneChangedFrom="0" laneChangedTo="0"/>
        <edge id="E5" sampledSeconds="199.75" traveltime="7.38" overlapTraveltime="7.77" density="9.82" laneDensity="4.91" occupancy="2.31" waitingTime="0.00" timeLoss="24.60" speed="12.18" speedRelative="0.88" departed="0" arrived="26" entered="26" left="0" laneChangedFrom="0" laneChangedTo="0"/>
        <edge id="E6" sampledSeconds="273.69" traveltime="7.31" overlapTraveltime="7.70" density="13.46" laneDensity="6.73" occupancy="3.17" waitingTime="0.00" timeLoss="30.90" speed="12.29" speedRelative="0.89" departed="0" arrived="36" entered="36" left="0" laneChangedFrom="0" laneChangedTo="0"/>
        <edge id="E7" sampledSeconds="216.78" traveltime="7.51" overlapTraveltime="7.89" density="10.66" laneDensity="5.33" occupancy="2.50" waitingTime="0.00" timeLoss="29.29" speed="11.99" speedRelative="0.86" departed="0" arrived="26" entered="29" left="0" laneChangedFrom="0" laneChangedTo="0"/>
        <edge id="E8" sampledSeconds="209.67" traveltime="7.47" overlapTraveltime="7.85" density="10.31" laneDensity="5.15" occupancy="2.44" waitingTime="0.00" timeLoss="27.68" speed="12.05" speedRelative="0.87" departed="0" arrived="27" entered="27" left="0" laneChangedFrom="0" laneChangedTo="0"/>
        <edge id="E9" sampledSeconds="225.81" traveltime="7.46" overlapTraveltime="7.85" density="11.10" laneDensity="5.55" occupancy="2.61" waitingTime="0.00" timeLoss="28.66" speed="12.06" speedRelative="0.87" departed="0" arrived="29" entered="29" left="0" laneChangedFrom="0" laneChangedTo="0"/>
    </interval>
>>>>>>> e9ad27f2b33e40028e9754b8bf8e2a1805d38a45
</meandata>
