<?xml version="1.0" encoding="UTF-8"?>

<!-- generated on 2022-12-04 18:07:46 by Eclipse SUMO GUI Version 1.14.1
<configuration xmlns:xsi="http://www.w3.org/2001/XMLSchema-instance" xsi:noNamespaceSchemaLocation="http://sumo.dlr.de/xsd/sumoConfiguration.xsd">

    <input>
        <net-file value="C:\Users\connp\OneDrive\Documents\_Pitt\Traffic_Capstone\team-project\VerticalRoad\verticalNetwork.net.xml"/>
        <route-files value="C:\Users\connp\OneDrive\Documents\_Pitt\Traffic_Capstone\team-project\VerticalRoad\routes.rou.xml"/>
        <additional-files value="C:\Users\connp\OneDrive\Documents\_Pitt\Traffic_Capstone\team-project\VerticalRoad\additionals.add.xml"/>
    </input>

    <time>
        <begin value="0"/>
        <end value="320"/>
    </time>

    <processing>
        <lateral-resolution value="0.5"/>
    </processing>

</configuration>
-->

<meandata xmlns:xsi="http://www.w3.org/2001/XMLSchema-instance" xsi:noNamespaceSchemaLocation="http://sumo.dlr.de/xsd/meandata_file.xsd">
</meandata>
