<?xml version="1.0" encoding="UTF-8"?>

<!-- generated on 2022-11-30 15:04:35 by Eclipse SUMO GUI Version 1.14.1
<configuration xmlns:xsi="http://www.w3.org/2001/XMLSchema-instance" xsi:noNamespaceSchemaLocation="http://sumo.dlr.de/xsd/sumoConfiguration.xsd">

    <input>
        <net-file value="C:\Users\connp\OneDrive\Documents\_Pitt\Traffic_Capstone\team-project\VerticalRoad\verticalNetwork.net.xml"/>
        <route-files value="C:\Users\connp\OneDrive\Documents\_Pitt\Traffic_Capstone\team-project\VerticalRoad\routes_EMS.rou.xml"/>
        <additional-files value="C:\Users\connp\OneDrive\Documents\_Pitt\Traffic_Capstone\team-project\VerticalRoad\additionals_EMS.add.xml"/>
    </input>

    <time>
        <begin value="0"/>
        <end value="320"/>
    </time>

    <processing>
        <lateral-resolution value="0.5"/>
    </processing>

</configuration>
-->

<meandata xmlns:xsi="http://www.w3.org/2001/XMLSchema-instance" xsi:noNamespaceSchemaLocation="http://sumo.dlr.de/xsd/meandata_file.xsd">
    <interval begin="0.00" end="131.00" id="EMSData">
        <edge id="E1" sampledSeconds="22.43" traveltime="22.70" overlapTraveltime="24.08" density="1.91" laneDensity="0.96" occupancy="0.60" waitingTime="1.00" timeLoss="18.13" speed="3.99" speedRelative="0.29" departed="1" arrived="0" entered="0" left="1" laneChangedFrom="1" laneChangedTo="1"/>
        <edge id="E2" sampledSeconds="17.28" traveltime="15.50" overlapTraveltime="17.28" density="1.67" laneDensity="0.83" occupancy="0.51" waitingTime="2.00" timeLoss="13.16" speed="4.96" speedRelative="0.36" departed="0" arrived="0" entered="1" left="1" laneChangedFrom="0" laneChangedTo="0"/>
        <edge id="E3" sampledSeconds="19.18" traveltime="15.73" overlapTraveltime="19.18" density="1.85" laneDensity="0.92" occupancy="0.55" waitingTime="4.00" timeLoss="15.06" speed="4.47" speedRelative="0.32" departed="0" arrived="0" entered="1" left="1" laneChangedFrom="0" laneChangedTo="0"/>
        <edge id="E4" sampledSeconds="5.90" traveltime="6.19" overlapTraveltime="6.63" density="0.50" laneDensity="0.25" occupancy="0.15" waitingTime="0.00" timeLoss="1.80" speed="14.49" speedRelative="1.04" departed="0" arrived="0" entered="1" left="0" laneChangedFrom="0" laneChangedTo="0"/>
    </interval>
    <interval begin="0.00" end="131.00" id="OtherData">
        <edge id="-E1" sampledSeconds="87.94" traveltime="7.64" overlapTraveltime="8.02" density="7.49" laneDensity="3.75" occupancy="1.76" waitingTime="0.00" timeLoss="13.57" speed="11.80" speedRelative="0.85" departed="0" arrived="11" entered="11" left="0" laneChangedFrom="0" laneChangedTo="0"/>
        <edge id="-E10" sampledSeconds="101.36" traveltime="7.05" overlapTraveltime="7.43" density="8.64" laneDensity="4.32" occupancy="2.05" waitingTime="0.00" timeLoss="9.50" speed="12.74" speedRelative="0.92" departed="0" arrived="13" entered="14" left="0" laneChangedFrom="0" laneChangedTo="0"/>
        <edge id="-E2" sampledSeconds="439.78" traveltime="70.74" overlapTraveltime="81.94" density="42.39" laneDensity="21.19" occupancy="9.61" waitingTime="354.00" timeLoss="405.23" speed="1.03" speedRelative="0.07" departed="0" arrived="0" entered="7" left="1" laneChangedFrom="4" laneChangedTo="4"/>
        <edge id="-E3" sampledSeconds="841.20" traveltime="53.96" overlapTraveltime="59.38" density="81.08" laneDensity="40.54" occupancy="19.00" waitingTime="610.00" timeLoss="753.45" speed="1.42" speedRelative="0.10" departed="0" arrived="0" entered="21" left="6" laneChangedFrom="11" laneChangedTo="11"/>
        <edge id="-E4" sampledSeconds="996.47" traveltime="42.01" overlapTraveltime="44.07" density="84.90" laneDensity="42.45" occupancy="20.69" waitingTime="575.00" timeLoss="835.86" speed="2.15" speedRelative="0.15" departed="27" arrived="0" entered="0" left="17" laneChangedFrom="11" laneChangedTo="11"/>
        <edge id="-E5" sampledSeconds="204.77" traveltime="23.35" overlapTraveltime="24.05" density="17.45" laneDensity="8.72" occupancy="4.30" waitingTime="96.00" timeLoss="146.26" speed="3.93" speedRelative="0.28" departed="9" arrived="0" entered="0" left="9" laneChangedFrom="0" laneChangedTo="0"/>
        <edge id="-E6" sampledSeconds="1438.76" traveltime="35.24" overlapTraveltime="36.81" density="122.58" laneDensity="61.29" occupancy="29.84" waitingTime="673.00" timeLoss="1158.81" speed="2.57" speedRelative="0.19" departed="45" arrived="0" entered="0" left="38" laneChangedFrom="20" laneChangedTo="20"/>
        <edge id="-E7" sampledSeconds="1479.81" traveltime="52.58" overlapTraveltime="54.00" density="126.07" laneDensity="63.04" occupancy="31.34" waitingTime="875.00" timeLoss="1286.05" speed="1.75" speedRelative="0.13" departed="36" arrived="0" entered="0" left="20" laneChangedFrom="14" laneChangedTo="14"/>
        <edge id="-E8" sampledSeconds="1941.66" traveltime="87.37" overlapTraveltime="91.52" density="165.42" laneDensity="82.71" occupancy="40.60" waitingTime="1360.00" timeLoss="1791.28" speed="1.03" speedRelative="0.07" departed="35" arrived="0" entered="0" left="12" laneChangedFrom="10" laneChangedTo="10"/>
        <edge id="-E9" sampledSeconds="890.07" traveltime="34.57" overlapTraveltime="36.50" density="75.83" laneDensity="37.92" occupancy="18.35" waitingTime="460.00" timeLoss="715.36" speed="2.59" speedRelative="0.19" departed="27" arrived="0" entered="0" left="20" laneChangedFrom="14" laneChangedTo="14"/>
        <edge id="E1" sampledSeconds="1366.64" traveltime="31.97" overlapTraveltime="32.63" density="116.43" laneDensity="58.22" occupancy="28.82" waitingTime="633.00" timeLoss="1077.38" speed="2.90" speedRelative="0.21" departed="45" arrived="0" entered="0" left="43" laneChangedFrom="19" laneChangedTo="19"/>
        <edge id="E10" sampledSeconds="1857.90" traveltime="92.67" overlapTraveltime="97.09" density="158.29" laneDensity="79.14" occupancy="38.81" waitingTime="1305.00" timeLoss="1726.71" speed="0.97" speedRelative="0.07" departed="29" arrived="0" entered="0" left="11" laneChangedFrom="11" laneChangedTo="11"/>
        <edge id="E2" sampledSeconds="794.69" traveltime="23.11" overlapTraveltime="24.38" density="76.60" laneDensity="38.30" occupancy="18.41" waitingTime="267.00" timeLoss="589.03" speed="3.45" speedRelative="0.25" departed="0" arrived="0" entered="36" left="28" laneChangedFrom="14" laneChangedTo="14"/>
        <edge id="E3" sampledSeconds="688.42" traveltime="32.12" overlapTraveltime="34.22" density="66.35" laneDensity="33.18" occupancy="15.89" waitingTime="416.00" timeLoss="562.05" speed="2.46" speedRelative="0.18" departed="0" arrived="0" entered="24" left="12" laneChangedFrom="16" laneChangedTo="16"/>
        <edge id="E4" sampledSeconds="115.69" traveltime="7.24" overlapTraveltime="7.62" density="9.86" laneDensity="4.93" occupancy="2.32" waitingTime="0.00" timeLoss="11.54" speed="12.42" speedRelative="0.89" departed="0" arrived="15" entered="17" left="0" laneChangedFrom="0" laneChangedTo="0"/>
        <edge id="E5" sampledSeconds="112.67" traveltime="7.21" overlapTraveltime="7.60" density="9.60" laneDensity="4.80" occupancy="2.27" waitingTime="0.00" timeLoss="12.27" speed="12.45" speedRelative="0.90" departed="0" arrived="15" entered="15" left="0" laneChangedFrom="0" laneChangedTo="0"/>
        <edge id="E6" sampledSeconds="159.99" traveltime="7.33" overlapTraveltime="7.72" density="13.63" laneDensity="6.82" occupancy="3.22" waitingTime="0.00" timeLoss="17.86" speed="12.26" speedRelative="0.88" departed="0" arrived="21" entered="21" left="0" laneChangedFrom="0" laneChangedTo="0"/>
        <edge id="E7" sampledSeconds="107.57" traveltime="7.54" overlapTraveltime="7.92" density="9.16" laneDensity="4.58" occupancy="2.16" waitingTime="0.00" timeLoss="14.73" speed="11.94" speedRelative="0.86" departed="0" arrived="13" entered="15" left="0" laneChangedFrom="0" laneChangedTo="0"/>
        <edge id="E8" sampledSeconds="128.09" traveltime="7.21" overlapTraveltime="7.59" density="10.91" laneDensity="5.46" occupancy="2.57" waitingTime="0.00" timeLoss="15.45" speed="12.47" speedRelative="0.90" departed="0" arrived="16" entered="19" left="0" laneChangedFrom="0" laneChangedTo="0"/>
        <edge id="E9" sampledSeconds="85.03" traveltime="7.35" overlapTraveltime="7.73" density="7.24" laneDensity="3.62" occupancy="1.70" waitingTime="0.00" timeLoss="12.04" speed="12.24" speedRelative="0.88" departed="0" arrived="11" entered="12" left="0" laneChangedFrom="0" laneChangedTo="0"/>
    </interval>
    <interval begin="0.00" end="131.00" id="AllData">
        <edge id="-E1" sampledSeconds="87.94" traveltime="7.64" overlapTraveltime="8.02" density="7.49" laneDensity="3.75" occupancy="1.76" waitingTime="0.00" timeLoss="13.57" speed="11.80" speedRelative="0.85" departed="0" arrived="11" entered="11" left="0" laneChangedFrom="0" laneChangedTo="0"/>
        <edge id="-E10" sampledSeconds="101.36" traveltime="7.05" overlapTraveltime="7.43" density="8.64" laneDensity="4.32" occupancy="2.05" waitingTime="0.00" timeLoss="9.50" speed="12.74" speedRelative="0.92" departed="0" arrived="13" entered="14" left="0" laneChangedFrom="0" laneChangedTo="0"/>
        <edge id="-E2" sampledSeconds="439.78" traveltime="70.74" overlapTraveltime="81.94" density="42.39" laneDensity="21.19" occupancy="9.61" waitingTime="354.00" timeLoss="405.23" speed="1.03" speedRelative="0.07" departed="0" arrived="0" entered="7" left="1" laneChangedFrom="4" laneChangedTo="4"/>
        <edge id="-E3" sampledSeconds="841.20" traveltime="53.96" overlapTraveltime="59.38" density="81.08" laneDensity="40.54" occupancy="19.00" waitingTime="610.00" timeLoss="753.45" speed="1.42" speedRelative="0.10" departed="0" arrived="0" entered="21" left="6" laneChangedFrom="11" laneChangedTo="11"/>
        <edge id="-E4" sampledSeconds="996.47" traveltime="42.01" overlapTraveltime="44.07" density="84.90" laneDensity="42.45" occupancy="20.69" waitingTime="575.00" timeLoss="835.86" speed="2.15" speedRelative="0.15" departed="27" arrived="0" entered="0" left="17" laneChangedFrom="11" laneChangedTo="11"/>
        <edge id="-E5" sampledSeconds="204.77" traveltime="23.35" overlapTraveltime="24.05" density="17.45" laneDensity="8.72" occupancy="4.30" waitingTime="96.00" timeLoss="146.26" speed="3.93" speedRelative="0.28" departed="9" arrived="0" entered="0" left="9" laneChangedFrom="0" laneChangedTo="0"/>
        <edge id="-E6" sampledSeconds="1438.76" traveltime="35.24" overlapTraveltime="36.81" density="122.58" laneDensity="61.29" occupancy="29.84" waitingTime="673.00" timeLoss="1158.81" speed="2.57" speedRelative="0.19" departed="45" arrived="0" entered="0" left="38" laneChangedFrom="20" laneChangedTo="20"/>
        <edge id="-E7" sampledSeconds="1479.81" traveltime="52.58" overlapTraveltime="54.00" density="126.07" laneDensity="63.04" occupancy="31.34" waitingTime="875.00" timeLoss="1286.05" speed="1.75" speedRelative="0.13" departed="36" arrived="0" entered="0" left="20" laneChangedFrom="14" laneChangedTo="14"/>
        <edge id="-E8" sampledSeconds="1941.66" traveltime="87.37" overlapTraveltime="91.52" density="165.42" laneDensity="82.71" occupancy="40.60" waitingTime="1360.00" timeLoss="1791.28" speed="1.03" speedRelative="0.07" departed="35" arrived="0" entered="0" left="12" laneChangedFrom="10" laneChangedTo="10"/>
        <edge id="-E9" sampledSeconds="890.07" traveltime="34.57" overlapTraveltime="36.50" density="75.83" laneDensity="37.92" occupancy="18.35" waitingTime="460.00" timeLoss="715.36" speed="2.59" speedRelative="0.19" departed="27" arrived="0" entered="0" left="20" laneChangedFrom="14" laneChangedTo="14"/>
        <edge id="E1" sampledSeconds="1389.07" traveltime="31.77" overlapTraveltime="32.44" density="118.34" laneDensity="59.17" occupancy="29.42" waitingTime="634.00" timeLoss="1095.51" speed="2.92" speedRelative="0.21" departed="46" arrived="0" entered="0" left="44" laneChangedFrom="20" laneChangedTo="20"/>
        <edge id="E10" sampledSeconds="1857.90" traveltime="92.67" overlapTraveltime="97.09" density="158.29" laneDensity="79.14" occupancy="38.81" waitingTime="1305.00" timeLoss="1726.71" speed="0.97" speedRelative="0.07" departed="29" arrived="0" entered="0" left="11" laneChangedFrom="11" laneChangedTo="11"/>
        <edge id="E2" sampledSeconds="811.97" traveltime="22.89" overlapTraveltime="24.17" density="78.26" laneDensity="39.13" occupancy="18.92" waitingTime="269.00" timeLoss="602.20" speed="3.49" speedRelative="0.25" departed="0" arrived="0" entered="37" left="29" laneChangedFrom="14" laneChangedTo="14"/>
        <edge id="E3" sampledSeconds="707.60" traveltime="31.36" overlapTraveltime="33.50" density="68.20" laneDensity="34.10" occupancy="16.44" waitingTime="420.00" timeLoss="577.12" speed="2.51" speedRelative="0.18" departed="0" arrived="0" entered="25" left="13" laneChangedFrom="16" laneChangedTo="16"/>
        <edge id="E4" sampledSeconds="121.60" traveltime="7.18" overlapTraveltime="7.56" density="10.36" laneDensity="5.18" occupancy="2.47" waitingTime="0.00" timeLoss="13.34" speed="12.52" speedRelative="0.90" departed="0" arrived="15" entered="18" left="0" laneChangedFrom="0" laneChangedTo="0"/>
        <edge id="E5" sampledSeconds="112.67" traveltime="7.21" overlapTraveltime="7.60" density="9.60" laneDensity="4.80" occupancy="2.27" waitingTime="0.00" timeLoss="12.27" speed="12.45" speedRelative="0.90" departed="0" arrived="15" entered="15" left="0" laneChangedFrom="0" laneChangedTo="0"/>
        <edge id="E6" sampledSeconds="159.99" traveltime="7.33" overlapTraveltime="7.72" density="13.63" laneDensity="6.82" occupancy="3.22" waitingTime="0.00" timeLoss="17.86" speed="12.26" speedRelative="0.88" departed="0" arrived="21" entered="21" left="0" laneChangedFrom="0" laneChangedTo="0"/>
        <edge id="E7" sampledSeconds="107.57" traveltime="7.54" overlapTraveltime="7.92" density="9.16" laneDensity="4.58" occupancy="2.16" waitingTime="0.00" timeLoss="14.73" speed="11.94" speedRelative="0.86" departed="0" arrived="13" entered="15" left="0" laneChangedFrom="0" laneChangedTo="0"/>
        <edge id="E8" sampledSeconds="128.09" traveltime="7.21" overlapTraveltime="7.59" density="10.91" laneDensity="5.46" occupancy="2.57" waitingTime="0.00" timeLoss="15.45" speed="12.47" speedRelative="0.90" departed="0" arrived="16" entered="19" left="0" laneChangedFrom="0" laneChangedTo="0"/>
        <edge id="E9" sampledSeconds="85.03" traveltime="7.35" overlapTraveltime="7.73" density="7.24" laneDensity="3.62" occupancy="1.70" waitingTime="0.00" timeLoss="12.04" speed="12.24" speedRelative="0.88" departed="0" arrived="11" entered="12" left="0" laneChangedFrom="0" laneChangedTo="0"/>
    </interval>
</meandata>
