<?xml version="1.0" encoding="UTF-8"?>

<!-- generated on 2022-12-04 18:27:28 by Eclipse SUMO GUI Version 1.14.1
<configuration xmlns:xsi="http://www.w3.org/2001/XMLSchema-instance" xsi:noNamespaceSchemaLocation="http://sumo.dlr.de/xsd/sumoConfiguration.xsd">

    <input>
        <net-file value="verticalNetwork.net.xml"/>
        <route-files value="routes_EMS.rou.xml"/>
        <additional-files value="additionals_EMS.add.xml"/>
    </input>

    <time>
        <begin value="0"/>
        <end value="320"/>
    </time>

    <processing>
        <lateral-resolution value="0.5"/>
    </processing>

    <traci_server>
        <remote-port value="51061"/>
    </traci_server>

</configuration>
-->

<meandata xmlns:xsi="http://www.w3.org/2001/XMLSchema-instance" xsi:noNamespaceSchemaLocation="http://sumo.dlr.de/xsd/meandata_file.xsd">
    <interval begin="0.00" end="128.00" id="EMSData">
        <edge id="E1" sampledSeconds="22.43" traveltime="22.70" overlapTraveltime="24.08" density="1.96" laneDensity="0.98" occupancy="0.62" waitingTime="1.00" timeLoss="18.13" speed="3.99" speedRelative="0.29" departed="1" arrived="0" entered="0" left="1" laneChangedFrom="1" laneChangedTo="1"/>
        <edge id="E2" sampledSeconds="17.28" traveltime="15.50" overlapTraveltime="17.28" density="1.70" laneDensity="0.85" occupancy="0.52" waitingTime="2.00" timeLoss="13.16" speed="4.96" speedRelative="0.36" departed="0" arrived="0" entered="1" left="1" laneChangedFrom="0" laneChangedTo="0"/>
        <edge id="E3" sampledSeconds="19.18" traveltime="15.73" overlapTraveltime="19.18" density="1.89" laneDensity="0.95" occupancy="0.56" waitingTime="4.00" timeLoss="15.06" speed="4.47" speedRelative="0.32" departed="0" arrived="0" entered="1" left="1" laneChangedFrom="0" laneChangedTo="0"/>
        <edge id="E4" sampledSeconds="2.90" traveltime="7.85" overlapTraveltime="8.42" density="0.25" laneDensity="0.13" occupancy="0.07" waitingTime="0.00" timeLoss="1.31" speed="11.42" speedRelative="0.82" departed="0" arrived="0" entered="1" left="0" laneChangedFrom="0" laneChangedTo="0"/>
    </interval>
    <interval begin="0.00" end="128.00" id="OtherData">
        <edge id="-E1" sampledSeconds="87.94" traveltime="7.64" overlapTraveltime="8.02" density="7.67" laneDensity="3.83" occupancy="1.80" waitingTime="0.00" timeLoss="13.57" speed="11.80" speedRelative="0.85" departed="0" arrived="11" entered="11" left="0" laneChangedFrom="0" laneChangedTo="0"/>
        <edge id="-E10" sampledSeconds="98.36" traveltime="7.10" overlapTraveltime="7.47" density="8.58" laneDensity="4.29" occupancy="2.03" waitingTime="0.00" timeLoss="9.38" speed="12.66" speedRelative="0.91" departed="0" arrived="13" entered="14" left="0" laneChangedFrom="0" laneChangedTo="0"/>
        <edge id="-E2" sampledSeconds="418.78" traveltime="67.55" overlapTraveltime="78.03" density="41.31" laneDensity="20.65" occupancy="9.39" waitingTime="333.00" timeLoss="384.23" speed="1.08" speedRelative="0.08" departed="0" arrived="0" entered="7" left="1" laneChangedFrom="4" laneChangedTo="4"/>
        <edge id="-E3" sampledSeconds="796.20" traveltime="51.83" overlapTraveltime="57.21" density="78.54" laneDensity="39.27" occupancy="18.34" waitingTime="575.00" timeLoss="709.90" speed="1.47" speedRelative="0.11" departed="0" arrived="0" entered="21" left="6" laneChangedFrom="11" laneChangedTo="11"/>
        <edge id="-E4" sampledSeconds="966.47" traveltime="40.70" overlapTraveltime="42.74" density="84.27" laneDensity="42.13" occupancy="20.53" waitingTime="545.00" timeLoss="805.86" speed="2.21" speedRelative="0.16" departed="27" arrived="0" entered="0" left="17" laneChangedFrom="11" laneChangedTo="11"/>
        <edge id="-E5" sampledSeconds="204.77" traveltime="23.35" overlapTraveltime="24.05" density="17.85" laneDensity="8.93" occupancy="4.40" waitingTime="96.00" timeLoss="146.26" speed="3.93" speedRelative="0.28" departed="9" arrived="0" entered="0" left="9" laneChangedFrom="0" laneChangedTo="0"/>
        <edge id="-E6" sampledSeconds="1411.13" traveltime="35.95" overlapTraveltime="37.55" density="123.04" laneDensity="61.52" occupancy="29.95" waitingTime="672.00" timeLoss="1141.82" speed="2.52" speedRelative="0.18" departed="45" arrived="0" entered="0" left="36" laneChangedFrom="19" laneChangedTo="19"/>
        <edge id="-E7" sampledSeconds="1431.81" traveltime="50.86" overlapTraveltime="52.25" density="124.84" laneDensity="62.42" occupancy="31.03" waitingTime="827.00" timeLoss="1238.05" speed="1.81" speedRelative="0.13" departed="36" arrived="0" entered="0" left="20" laneChangedFrom="14" laneChangedTo="14"/>
        <edge id="-E8" sampledSeconds="1872.66" traveltime="84.20" overlapTraveltime="88.27" density="163.28" laneDensity="81.64" occupancy="40.05" waitingTime="1291.00" timeLoss="1722.28" speed="1.07" speedRelative="0.08" departed="35" arrived="0" entered="0" left="12" laneChangedFrom="10" laneChangedTo="10"/>
        <edge id="-E9" sampledSeconds="869.07" traveltime="33.72" overlapTraveltime="35.64" density="75.78" laneDensity="37.89" occupancy="18.32" waitingTime="439.00" timeLoss="694.36" speed="2.65" speedRelative="0.19" departed="27" arrived="0" entered="0" left="20" laneChangedFrom="14" laneChangedTo="14"/>
        <edge id="E1" sampledSeconds="1357.40" traveltime="32.38" overlapTraveltime="33.06" density="118.36" laneDensity="59.18" occupancy="29.31" waitingTime="633.00" timeLoss="1074.38" speed="2.86" speedRelative="0.21" departed="45" arrived="0" entered="0" left="41" laneChangedFrom="18" laneChangedTo="18"/>
        <edge id="E10" sampledSeconds="1803.90" traveltime="89.91" overlapTraveltime="94.27" density="157.29" laneDensity="78.64" occupancy="38.54" waitingTime="1251.00" timeLoss="1672.71" speed="1.00" speedRelative="0.07" departed="29" arrived="0" entered="0" left="11" laneChangedFrom="11" laneChangedTo="11"/>
        <edge id="E2" sampledSeconds="768.63" traveltime="23.38" overlapTraveltime="24.67" density="75.82" laneDensity="37.91" occupancy="18.23" waitingTime="265.00" timeLoss="572.18" speed="3.41" speedRelative="0.25" departed="0" arrived="0" entered="34" left="27" laneChangedFrom="14" laneChangedTo="14"/>
        <edge id="E3" sampledSeconds="652.42" traveltime="30.37" overlapTraveltime="32.43" density="64.36" laneDensity="32.18" occupancy="15.37" waitingTime="380.00" timeLoss="526.05" speed="2.60" speedRelative="0.19" departed="0" arrived="0" entered="24" left="12" laneChangedFrom="16" laneChangedTo="16"/>
        <edge id="E4" sampledSeconds="112.74" traveltime="7.20" overlapTraveltime="7.58" density="9.83" laneDensity="4.92" occupancy="2.32" waitingTime="0.00" timeLoss="10.88" speed="12.49" speedRelative="0.90" departed="0" arrived="15" entered="15" left="0" laneChangedFrom="0" laneChangedTo="0"/>
        <edge id="E5" sampledSeconds="112.04" traveltime="7.21" overlapTraveltime="7.60" density="9.77" laneDensity="4.88" occupancy="2.31" waitingTime="0.00" timeLoss="12.24" speed="12.45" speedRelative="0.90" departed="0" arrived="14" entered="15" left="0" laneChangedFrom="0" laneChangedTo="0"/>
        <edge id="E6" sampledSeconds="159.99" traveltime="7.33" overlapTraveltime="7.72" density="13.95" laneDensity="6.97" occupancy="3.29" waitingTime="0.00" timeLoss="17.86" speed="12.26" speedRelative="0.88" departed="0" arrived="21" entered="21" left="0" laneChangedFrom="0" laneChangedTo="0"/>
        <edge id="E7" sampledSeconds="103.22" traveltime="7.53" overlapTraveltime="7.91" density="9.00" laneDensity="4.50" occupancy="2.12" waitingTime="0.00" timeLoss="13.91" speed="11.96" speedRelative="0.86" departed="0" arrived="13" entered="14" left="0" laneChangedFrom="0" laneChangedTo="0"/>
        <edge id="E8" sampledSeconds="120.18" traveltime="7.22" overlapTraveltime="7.60" density="10.48" laneDensity="5.24" occupancy="2.47" waitingTime="0.00" timeLoss="14.64" speed="12.45" speedRelative="0.90" departed="0" arrived="15" entered="17" left="0" laneChangedFrom="0" laneChangedTo="0"/>
        <edge id="E9" sampledSeconds="83.45" traveltime="7.31" overlapTraveltime="7.68" density="7.28" laneDensity="3.64" occupancy="1.72" waitingTime="0.00" timeLoss="11.33" speed="12.31" speedRelative="0.89" departed="0" arrived="11" entered="11" left="0" laneChangedFrom="0" laneChangedTo="0"/>
    </interval>
    <interval begin="0.00" end="128.00" id="AllData">
        <edge id="-E1" sampledSeconds="87.94" traveltime="7.64" overlapTraveltime="8.02" density="7.67" laneDensity="3.83" occupancy="1.80" waitingTime="0.00" timeLoss="13.57" speed="11.80" speedRelative="0.85" departed="0" arrived="11" entered="11" left="0" laneChangedFrom="0" laneChangedTo="0"/>
        <edge id="-E10" sampledSeconds="98.36" traveltime="7.10" overlapTraveltime="7.47" density="8.58" laneDensity="4.29" occupancy="2.03" waitingTime="0.00" timeLoss="9.38" speed="12.66" speedRelative="0.91" departed="0" arrived="13" entered="14" left="0" laneChangedFrom="0" laneChangedTo="0"/>
        <edge id="-E2" sampledSeconds="418.78" traveltime="67.55" overlapTraveltime="78.03" density="41.31" laneDensity="20.65" occupancy="9.39" waitingTime="333.00" timeLoss="384.23" speed="1.08" speedRelative="0.08" departed="0" arrived="0" entered="7" left="1" laneChangedFrom="4" laneChangedTo="4"/>
        <edge id="-E3" sampledSeconds="796.20" traveltime="51.83" overlapTraveltime="57.21" density="78.54" laneDensity="39.27" occupancy="18.34" waitingTime="575.00" timeLoss="709.90" speed="1.47" speedRelative="0.11" departed="0" arrived="0" entered="21" left="6" laneChangedFrom="11" laneChangedTo="11"/>
        <edge id="-E4" sampledSeconds="966.47" traveltime="40.70" overlapTraveltime="42.74" density="84.27" laneDensity="42.13" occupancy="20.53" waitingTime="545.00" timeLoss="805.86" speed="2.21" speedRelative="0.16" departed="27" arrived="0" entered="0" left="17" laneChangedFrom="11" laneChangedTo="11"/>
        <edge id="-E5" sampledSeconds="204.77" traveltime="23.35" overlapTraveltime="24.05" density="17.85" laneDensity="8.93" occupancy="4.40" waitingTime="96.00" timeLoss="146.26" speed="3.93" speedRelative="0.28" departed="9" arrived="0" entered="0" left="9" laneChangedFrom="0" laneChangedTo="0"/>
        <edge id="-E6" sampledSeconds="1411.13" traveltime="35.95" overlapTraveltime="37.55" density="123.04" laneDensity="61.52" occupancy="29.95" waitingTime="672.00" timeLoss="1141.82" speed="2.52" speedRelative="0.18" departed="45" arrived="0" entered="0" left="36" laneChangedFrom="19" laneChangedTo="19"/>
        <edge id="-E7" sampledSeconds="1431.81" traveltime="50.86" overlapTraveltime="52.25" density="124.84" laneDensity="62.42" occupancy="31.03" waitingTime="827.00" timeLoss="1238.05" speed="1.81" speedRelative="0.13" departed="36" arrived="0" entered="0" left="20" laneChangedFrom="14" laneChangedTo="14"/>
        <edge id="-E8" sampledSeconds="1872.66" traveltime="84.20" overlapTraveltime="88.27" density="163.28" laneDensity="81.64" occupancy="40.05" waitingTime="1291.00" timeLoss="1722.28" speed="1.07" speedRelative="0.08" departed="35" arrived="0" entered="0" left="12" laneChangedFrom="10" laneChangedTo="10"/>
        <edge id="-E9" sampledSeconds="869.07" traveltime="33.72" overlapTraveltime="35.64" density="75.78" laneDensity="37.89" occupancy="18.32" waitingTime="439.00" timeLoss="694.36" speed="2.65" speedRelative="0.19" departed="27" arrived="0" entered="0" left="20" laneChangedFrom="14" laneChangedTo="14"/>
        <edge id="E1" sampledSeconds="1379.82" traveltime="32.17" overlapTraveltime="32.86" density="120.31" laneDensity="60.16" occupancy="29.93" waitingTime="634.00" timeLoss="1092.51" speed="2.88" speedRelative="0.21" departed="46" arrived="0" entered="0" left="42" laneChangedFrom="19" laneChangedTo="19"/>
        <edge id="E10" sampledSeconds="1803.90" traveltime="89.91" overlapTraveltime="94.27" density="157.29" laneDensity="78.64" occupancy="38.54" waitingTime="1251.00" timeLoss="1672.71" speed="1.00" speedRelative="0.07" departed="29" arrived="0" entered="0" left="11" laneChangedFrom="11" laneChangedTo="11"/>
        <edge id="E2" sampledSeconds="785.91" traveltime="23.14" overlapTraveltime="24.44" density="77.52" laneDensity="38.76" occupancy="18.75" waitingTime="267.00" timeLoss="585.35" speed="3.45" speedRelative="0.25" departed="0" arrived="0" entered="35" left="28" laneChangedFrom="14" laneChangedTo="14"/>
        <edge id="E3" sampledSeconds="671.60" traveltime="29.70" overlapTraveltime="31.80" density="66.25" laneDensity="33.12" occupancy="15.93" waitingTime="384.00" timeLoss="541.12" speed="2.65" speedRelative="0.19" departed="0" arrived="0" entered="25" left="13" laneChangedFrom="16" laneChangedTo="16"/>
        <edge id="E4" sampledSeconds="115.64" traveltime="7.21" overlapTraveltime="7.59" density="10.08" laneDensity="5.04" occupancy="2.39" waitingTime="0.00" timeLoss="12.19" speed="12.46" speedRelative="0.90" departed="0" arrived="15" entered="16" left="0" laneChangedFrom="0" laneChangedTo="0"/>
        <edge id="E5" sampledSeconds="112.04" traveltime="7.21" overlapTraveltime="7.60" density="9.77" laneDensity="4.88" occupancy="2.31" waitingTime="0.00" timeLoss="12.24" speed="12.45" speedRelative="0.90" departed="0" arrived="14" entered="15" left="0" laneChangedFrom="0" laneChangedTo="0"/>
        <edge id="E6" sampledSeconds="159.99" traveltime="7.33" overlapTraveltime="7.72" density="13.95" laneDensity="6.97" occupancy="3.29" waitingTime="0.00" timeLoss="17.86" speed="12.26" speedRelative="0.88" departed="0" arrived="21" entered="21" left="0" laneChangedFrom="0" laneChangedTo="0"/>
        <edge id="E7" sampledSeconds="103.22" traveltime="7.53" overlapTraveltime="7.91" density="9.00" laneDensity="4.50" occupancy="2.12" waitingTime="0.00" timeLoss="13.91" speed="11.96" speedRelative="0.86" departed="0" arrived="13" entered="14" left="0" laneChangedFrom="0" laneChangedTo="0"/>
        <edge id="E8" sampledSeconds="120.18" traveltime="7.22" overlapTraveltime="7.60" density="10.48" laneDensity="5.24" occupancy="2.47" waitingTime="0.00" timeLoss="14.64" speed="12.45" speedRelative="0.90" departed="0" arrived="15" entered="17" left="0" laneChangedFrom="0" laneChangedTo="0"/>
        <edge id="E9" sampledSeconds="83.45" traveltime="7.31" overlapTraveltime="7.68" density="7.28" laneDensity="3.64" occupancy="1.72" waitingTime="0.00" timeLoss="11.33" speed="12.31" speedRelative="0.89" departed="0" arrived="11" entered="11" left="0" laneChangedFrom="0" laneChangedTo="0"/>
    </interval>
</meandata>
