<?xml version="1.0" encoding="UTF-8"?>

<!-- generated on 2022-11-29 18:18:52 by Eclipse SUMO GUI Version 1.14.1
<configuration xmlns:xsi="http://www.w3.org/2001/XMLSchema-instance" xsi:noNamespaceSchemaLocation="http://sumo.dlr.de/xsd/sumoConfiguration.xsd">

    <input>
        <net-file value="C:\Users\connp\OneDrive\Documents\_Pitt\Traffic_Capstone\team-project\VerticalRoad\verticalNetwork.net.xml"/>
        <route-files value="C:\Users\connp\OneDrive\Documents\_Pitt\Traffic_Capstone\team-project\VerticalRoad\routes.rou.xml"/>
        <additional-files value="C:\Users\connp\OneDrive\Documents\_Pitt\Traffic_Capstone\team-project\VerticalRoad\additionals.add.xml"/>
    </input>

    <time>
        <begin value="0"/>
        <end value="320"/>
    </time>

    <processing>
        <lateral-resolution value="0.5"/>
    </processing>

</configuration>
-->

<meandata xmlns:xsi="http://www.w3.org/2001/XMLSchema-instance" xsi:noNamespaceSchemaLocation="http://sumo.dlr.de/xsd/meandata_file.xsd">
    <interval begin="0.00" end="320.00" id="OtherData">
        <edge id="-E1" sampledSeconds="142.28" traveltime="7.57" overlapTraveltime="7.94" density="4.96" laneDensity="2.48" occupancy="1.16" waitingTime="0.00" timeLoss="21.06" speed="11.91" speedRelative="0.86" departed="0" arrived="18" entered="18" left="0" laneChangedFrom="0" laneChangedTo="0"/>
        <edge id="-E10" sampledSeconds="133.80" traveltime="7.11" overlapTraveltime="7.49" density="4.67" laneDensity="2.33" occupancy="1.10" waitingTime="0.00" timeLoss="12.61" speed="12.64" speedRelative="0.91" departed="0" arrived="18" entered="18" left="0" laneChangedFrom="0" laneChangedTo="0"/>
        <edge id="-E2" sampledSeconds="1218.11" traveltime="68.16" overlapTraveltime="71.65" density="48.06" laneDensity="24.03" occupancy="11.48" waitingTime="958.00" timeLoss="1107.51" speed="1.18" speedRelative="0.08" departed="0" arrived="0" entered="17" left="17" laneChangedFrom="10" laneChangedTo="10"/>
        <edge id="-E3" sampledSeconds="2484.22" traveltime="99.08" overlapTraveltime="103.50" density="98.02" laneDensity="49.01" occupancy="23.56" waitingTime="1865.00" timeLoss="2336.94" speed="0.81" speedRelative="0.06" departed="0" arrived="0" entered="25" left="24" laneChangedFrom="16" laneChangedTo="16"/>
        <edge id="-E4" sampledSeconds="2540.36" traveltime="99.82" overlapTraveltime="104.61" density="88.60" laneDensity="44.30" occupancy="21.34" waitingTime="1918.00" timeLoss="2365.81" speed="0.90" speedRelative="0.07" departed="27" arrived="0" entered="0" left="23" laneChangedFrom="12" laneChangedTo="12"/>
        <edge id="-E5" sampledSeconds="204.96" traveltime="23.37" overlapTraveltime="24.07" density="7.15" laneDensity="3.57" occupancy="1.76" waitingTime="96.00" timeLoss="146.45" speed="3.93" speedRelative="0.28" departed="9" arrived="0" entered="0" left="9" laneChangedFrom="0" laneChangedTo="0"/>
        <edge id="-E6" sampledSeconds="1488.73" traveltime="33.73" overlapTraveltime="34.97" density="51.92" laneDensity="25.96" occupancy="12.67" waitingTime="741.00" timeLoss="1184.42" speed="2.71" speedRelative="0.19" departed="45" arrived="0" entered="0" left="45" laneChangedFrom="22" laneChangedTo="22"/>
        <edge id="-E7" sampledSeconds="1634.25" traveltime="47.10" overlapTraveltime="47.98" density="57.00" laneDensity="28.50" occupancy="14.11" waitingTime="889.00" timeLoss="1389.18" speed="1.97" speedRelative="0.14" departed="36" arrived="0" entered="0" left="36" laneChangedFrom="18" laneChangedTo="18"/>
        <edge id="-E8" sampledSeconds="3758.16" traveltime="86.70" overlapTraveltime="89.11" density="131.07" laneDensity="65.54" occupancy="32.05" waitingTime="2584.00" timeLoss="3451.65" speed="1.06" speedRelative="0.08" departed="45" arrived="0" entered="0" left="43" laneChangedFrom="23" laneChangedTo="23"/>
        <edge id="-E9" sampledSeconds="915.34" traveltime="34.00" overlapTraveltime="35.83" density="31.92" laneDensity="15.96" occupancy="7.67" waitingTime="469.00" timeLoss="730.70" speed="2.64" speedRelative="0.19" departed="27" arrived="0" entered="0" left="27" laneChangedFrom="10" laneChangedTo="10"/>
        <edge id="E1" sampledSeconds="1358.58" traveltime="31.22" overlapTraveltime="31.91" density="47.38" laneDensity="23.69" occupancy="11.70" waitingTime="611.00" timeLoss="1064.22" speed="2.96" speedRelative="0.21" departed="45" arrived="0" entered="0" left="45" laneChangedFrom="18" laneChangedTo="18"/>
        <edge id="E10" sampledSeconds="2893.84" traveltime="82.95" overlapTraveltime="84.97" density="100.93" laneDensity="50.46" occupancy="24.73" waitingTime="1937.00" timeLoss="2657.08" speed="1.11" speedRelative="0.08" departed="36" arrived="0" entered="0" left="36" laneChangedFrom="12" laneChangedTo="12"/>
        <edge id="E2" sampledSeconds="1892.92" traveltime="33.72" overlapTraveltime="35.05" density="74.69" laneDensity="37.34" occupancy="18.07" waitingTime="1077.00" timeLoss="1550.20" speed="2.40" speedRelative="0.17" departed="0" arrived="0" entered="54" left="54" laneChangedFrom="32" laneChangedTo="32"/>
        <edge id="E3" sampledSeconds="2009.72" traveltime="29.20" overlapTraveltime="30.40" density="79.30" laneDensity="39.65" occupancy="19.15" waitingTime="1128.00" timeLoss="1585.94" speed="2.77" speedRelative="0.20" departed="0" arrived="0" entered="69" left="63" laneChangedFrom="37" laneChangedTo="37"/>
        <edge id="E4" sampledSeconds="257.34" traveltime="7.23" overlapTraveltime="7.62" density="8.98" laneDensity="4.49" occupancy="2.12" waitingTime="0.00" timeLoss="24.26" speed="12.42" speedRelative="0.89" departed="0" arrived="34" entered="35" left="0" laneChangedFrom="0" laneChangedTo="0"/>
        <edge id="E5" sampledSeconds="325.75" traveltime="7.63" overlapTraveltime="8.02" density="11.36" laneDensity="5.68" occupancy="2.67" waitingTime="0.00" timeLoss="50.25" speed="11.80" speedRelative="0.85" departed="0" arrived="41" entered="42" left="0" laneChangedFrom="0" laneChangedTo="0"/>
        <edge id="E6" sampledSeconds="275.47" traveltime="7.35" overlapTraveltime="7.74" density="9.61" laneDensity="4.80" occupancy="2.26" waitingTime="0.00" timeLoss="32.45" speed="12.22" speedRelative="0.88" departed="0" arrived="36" entered="36" left="0" laneChangedFrom="0" laneChangedTo="0"/>
        <edge id="E7" sampledSeconds="315.24" traveltime="7.38" overlapTraveltime="7.76" density="10.99" laneDensity="5.50" occupancy="2.58" waitingTime="0.00" timeLoss="41.65" speed="12.20" speedRelative="0.88" departed="0" arrived="41" entered="42" left="0" laneChangedFrom="0" laneChangedTo="0"/>
        <edge id="E8" sampledSeconds="207.63" traveltime="7.40" overlapTraveltime="7.79" density="7.24" laneDensity="3.62" occupancy="1.71" waitingTime="0.00" timeLoss="25.80" speed="12.15" speedRelative="0.87" departed="0" arrived="27" entered="27" left="0" laneChangedFrom="0" laneChangedTo="0"/>
        <edge id="E9" sampledSeconds="269.73" traveltime="7.37" overlapTraveltime="7.75" density="9.41" laneDensity="4.70" occupancy="2.21" waitingTime="0.00" timeLoss="34.74" speed="12.20" speedRelative="0.88" departed="0" arrived="35" entered="35" left="0" laneChangedFrom="0" laneChangedTo="0"/>
    </interval>
</meandata>
