<?xml version="1.0" encoding="UTF-8"?>

<!-- generated on 2022-11-14 14:48:35 by Eclipse SUMO GUI Version 1.14.1
<configuration xmlns:xsi="http://www.w3.org/2001/XMLSchema-instance" xsi:noNamespaceSchemaLocation="http://sumo.dlr.de/xsd/sumoConfiguration.xsd">

    <input>
        <net-file value="network.net.xml"/>
        <route-files value="routes_0.05.rou.xml"/>
    </input>

    <output>
        <tripinfo-output value="tripinfo.xml"/>
    </output>

    <time>
        <begin value="0"/>
        <end value="3500"/>
    </time>

    <traci_server>
        <remote-port value="60182"/>
    </traci_server>

</configuration>
-->

<tripinfos xmlns:xsi="http://www.w3.org/2001/XMLSchema-instance" xsi:noNamespaceSchemaLocation="http://sumo.dlr.de/xsd/tripinfo_file.xsd">
    <tripinfo id="f_68.0" depart="9.00" departLane="-E15_0" departPos="5.10" departSpeed="0.00" departDelay="1.00" arrival="27.00" arrivalLane="E17_0" arrivalPos="83.20" arrivalSpeed="14.63" duration="18.00" routeLength="170.33" waitingTime="0.00" waitingCount="0" stopTime="0.00" timeLoss="5.76" rerouteNo="0" devices="tripinfo_f_68.0 routing_f_68.0" vType="DEFAULT_VEHTYPE" speedFactor="1.08" vaporized=""/>
    <tripinfo id="f_99.0" depart="7.00" departLane="-E13_0" departPos="5.10" departSpeed="0.00" departDelay="6.00" arrival="29.00" arrivalLane="E23_3" arrivalPos="83.20" arrivalSpeed="14.79" duration="22.00" routeLength="190.97" waitingTime="1.00" waitingCount="1" stopTime="0.00" timeLoss="9.02" rerouteNo="0" devices="tripinfo_f_99.0 routing_f_99.0" vType="DEFAULT_VEHTYPE" speedFactor="1.16" vaporized=""/>
    <tripinfo id="f_71.0" depart="0.00" departLane="-E15_0" departPos="5.10" departSpeed="0.00" departDelay="0.00" arrival="35.00" arrivalLane="E5_0" arrivalPos="83.20" arrivalSpeed="11.83" duration="35.00" routeLength="395.20" waitingTime="0.00" waitingCount="0" stopTime="0.00" timeLoss="4.10" rerouteNo="1" devices="tripinfo_f_71.0 routing_f_71.0" vType="DEFAULT_VEHTYPE" speedFactor="0.94" vaporized=""/>
    <tripinfo id="f_0.0" depart="6.00" departLane="-E3_0" departPos="5.10" departSpeed="0.00" departDelay="3.00" arrival="36.00" arrivalLane="E14_0" arrivalPos="83.20" arrivalSpeed="14.95" duration="30.00" routeLength="395.10" waitingTime="0.00" waitingCount="0" stopTime="0.00" timeLoss="4.00" rerouteNo="0" devices="tripinfo_f_0.0 routing_f_0.0" vType="DEFAULT_VEHTYPE" speedFactor="1.13" vaporized=""/>
    <tripinfo id="f_13.0" depart="3.00" departLane="-E9_0" departPos="5.10" departSpeed="0.00" departDelay="1.00" arrival="38.00" arrivalLane="E23_0" arrivalPos="83.20" arrivalSpeed="12.72" duration="35.00" routeLength="370.53" waitingTime="0.00" waitingCount="0" stopTime="0.00" timeLoss="6.43" rerouteNo="0" devices="tripinfo_f_13.0 routing_f_13.0" vType="DEFAULT_VEHTYPE" speedFactor="0.97" vaporized=""/>
    <tripinfo id="f_97.0" depart="4.00" departLane="-E13_0" departPos="5.10" departSpeed="0.00" departDelay="3.00" arrival="40.00" arrivalLane="E7_3" arrivalPos="83.20" arrivalSpeed="12.34" duration="36.00" routeLength="391.17" waitingTime="0.00" waitingCount="0" stopTime="0.00" timeLoss="4.99" rerouteNo="1" devices="tripinfo_f_97.0 routing_f_97.0" vType="DEFAULT_VEHTYPE" speedFactor="0.94" vaporized=""/>
    <tripinfo id="f_99.1" depart="16.00" departLane="-E13_0" departPos="5.10" departSpeed="0.00" departDelay="11.00" arrival="40.00" arrivalLane="E23_3" arrivalPos="83.20" arrivalSpeed="14.60" duration="24.00" routeLength="190.97" waitingTime="2.00" waitingCount="1" stopTime="0.00" timeLoss="10.30" rerouteNo="0" devices="tripinfo_f_99.1 routing_f_99.1" vType="DEFAULT_VEHTYPE" speedFactor="1.09" vaporized=""/>
    <tripinfo id="f_70.0" depart="6.00" departLane="-E15_0" departPos="5.10" departSpeed="0.00" departDelay="0.00" arrival="40.00" arrivalLane="E6_0" arrivalPos="83.20" arrivalSpeed="13.27" duration="34.00" routeLength="370.53" waitingTime="0.00" waitingCount="0" stopTime="0.00" timeLoss="6.02" rerouteNo="1" devices="tripinfo_f_70.0 routing_f_70.0" vType="DEFAULT_VEHTYPE" speedFactor="1.00" vaporized=""/>
    <tripinfo id="f_12.0" depart="14.00" departLane="-E9_0" departPos="5.10" departSpeed="0.00" departDelay="0.00" arrival="40.00" arrivalLane="E22_0" arrivalPos="83.20" arrivalSpeed="13.64" duration="26.00" routeLength="270.43" waitingTime="0.00" waitingCount="0" stopTime="0.00" timeLoss="6.37" rerouteNo="0" devices="tripinfo_f_12.0 routing_f_12.0" vType="DEFAULT_VEHTYPE" speedFactor="1.06" vaporized=""/>
    <tripinfo id="f_33.0" depart="18.00" departLane="-E5_0" departPos="5.10" departSpeed="0.00" departDelay="3.00" arrival="42.00" arrivalLane="E6_3" arrivalPos="83.20" arrivalSpeed="12.56" duration="24.00" routeLength="190.97" waitingTime="2.00" waitingCount="1" stopTime="0.00" timeLoss="8.94" rerouteNo="0" devices="tripinfo_f_33.0 routing_f_33.0" vType="DEFAULT_VEHTYPE" speedFactor="0.95" vaporized=""/>
    <tripinfo id="f_98.0" depart="0.00" departLane="-E13_0" departPos="5.10" departSpeed="0.00" departDelay="0.00" arrival="45.00" arrivalLane="E22_3" arrivalPos="83.20" arrivalSpeed="11.38" duration="45.00" routeLength="291.07" waitingTime="12.00" waitingCount="1" stopTime="0.00" timeLoss="19.21" rerouteNo="1" devices="tripinfo_f_98.0 routing_f_98.0" vType="DEFAULT_VEHTYPE" speedFactor="0.86" vaporized=""/>
    <tripinfo id="f_98.1" depart="5.00" departLane="-E13_0" departPos="5.10" departSpeed="0.00" departDelay="4.00" arrival="46.00" arrivalLane="E22_3" arrivalPos="83.20" arrivalSpeed="12.55" duration="41.00" routeLength="291.07" waitingTime="8.00" waitingCount="2" stopTime="0.00" timeLoss="18.21" rerouteNo="1" devices="tripinfo_f_98.1 routing_f_98.1" vType="DEFAULT_VEHTYPE" speedFactor="0.94" vaporized=""/>
    <tripinfo id="f_10.0" depart="0.00" departLane="-E3_0" departPos="5.10" departSpeed="0.00" departDelay="0.00" arrival="54.00" arrivalLane="E9_0" arrivalPos="83.20" arrivalSpeed="14.66" duration="54.00" routeLength="245.76" waitingTime="26.00" waitingCount="1" stopTime="0.00" timeLoss="35.85" rerouteNo="0" devices="tripinfo_f_10.0 routing_f_10.0" vType="DEFAULT_VEHTYPE" speedFactor="1.06" vaporized=""/>
    <tripinfo id="f_100.0" depart="7.00" departLane="-E23_0" departPos="5.10" departSpeed="0.00" departDelay="3.00" arrival="54.00" arrivalLane="E13_0" arrivalPos="83.20" arrivalSpeed="13.69" duration="47.00" routeLength="170.33" waitingTime="25.00" waitingCount="1" stopTime="0.00" timeLoss="34.09" rerouteNo="0" devices="tripinfo_f_100.0 routing_f_100.0" vType="DEFAULT_VEHTYPE" speedFactor="0.99" vaporized=""/>
    <tripinfo id="f_34.0" depart="23.00" departLane="-E6_0" departPos="5.10" departSpeed="0.00" departDelay="0.00" arrival="54.00" arrivalLane="E5_0" arrivalPos="83.20" arrivalSpeed="15.10" duration="31.00" routeLength="170.33" waitingTime="10.00" waitingCount="1" stopTime="0.00" timeLoss="19.99" rerouteNo="0" devices="tripinfo_f_34.0 routing_f_34.0" vType="DEFAULT_VEHTYPE" speedFactor="1.18" vaporized=""/>
    <tripinfo id="f_66.0" depart="1.00" departLane="-E22_0" departPos="5.10" departSpeed="0.00" departDelay="0.00" arrival="55.00" arrivalLane="E22_3" arrivalPos="83.20" arrivalSpeed="13.15" duration="54.00" routeLength="165.97" waitingTime="31.00" waitingCount="1" stopTime="0.00" timeLoss="40.60" rerouteNo="0" devices="tripinfo_f_66.0 routing_f_66.0" vType="DEFAULT_VEHTYPE" speedFactor="0.99" vaporized=""/>
    <tripinfo id="f_82.0" depart="3.00" departLane="-E14_0" departPos="5.10" departSpeed="0.00" departDelay="0.00" arrival="55.00" arrivalLane="E6_0" arrivalPos="83.20" arrivalSpeed="15.36" duration="52.00" routeLength="470.63" waitingTime="9.00" waitingCount="1" stopTime="0.00" timeLoss="22.06" rerouteNo="1" devices="tripinfo_f_82.0 routing_f_82.0" vType="DEFAULT_VEHTYPE" speedFactor="1.15" vaporized=""/>
    <tripinfo id="f_89.0" depart="13.00" departLane="-E13_0" departPos="5.10" departSpeed="0.00" departDelay="9.00" arrival="55.00" arrivalLane="E14_0" arrivalPos="83.20" arrivalSpeed="12.44" duration="42.00" routeLength="245.76" waitingTime="9.00" waitingCount="1" stopTime="0.00" timeLoss="20.46" rerouteNo="1" devices="tripinfo_f_89.0 routing_f_89.0" vType="DEFAULT_VEHTYPE" speedFactor="0.90" vaporized=""/>
    <tripinfo id="f_79.0" depart="10.00" departLane="-E14_0" departPos="5.10" departSpeed="0.00" departDelay="1.00" arrival="55.00" arrivalLane="E15_0" arrivalPos="83.20" arrivalSpeed="11.01" duration="45.00" routeLength="245.76" waitingTime="14.00" waitingCount="1" stopTime="0.00" timeLoss="23.02" rerouteNo="1" devices="tripinfo_f_79.0 routing_f_79.0" vType="DEFAULT_VEHTYPE" speedFactor="0.88" vaporized=""/>
    <tripinfo id="f_82.1" depart="5.00" departLane="-E14_0" departPos="5.10" departSpeed="0.00" departDelay="1.00" arrival="56.00" arrivalLane="E6_2" arrivalPos="83.20" arrivalSpeed="14.49" duration="51.00" routeLength="470.63" waitingTime="4.00" waitingCount="1" stopTime="0.00" timeLoss="18.99" rerouteNo="1" devices="tripinfo_f_82.1 routing_f_82.1" vType="DEFAULT_VEHTYPE" speedFactor="1.10" vaporized=""/>
    <tripinfo id="f_7.0" depart="18.00" departLane="-E3_0" departPos="5.10" departSpeed="0.00" departDelay="11.00" arrival="56.00" arrivalLane="E7_0" arrivalPos="83.20" arrivalSpeed="14.49" duration="38.00" routeLength="270.43" waitingTime="5.00" waitingCount="1" stopTime="0.00" timeLoss="19.32" rerouteNo="0" devices="tripinfo_f_7.0 routing_f_7.0" vType="DEFAULT_VEHTYPE" speedFactor="1.10" vaporized=""/>
    <tripinfo id="f_80.0" depart="7.00" departLane="-E14_0" departPos="5.10" departSpeed="0.00" departDelay="0.00" arrival="56.00" arrivalLane="E17_0" arrivalPos="83.20" arrivalSpeed="12.83" duration="49.00" routeLength="270.43" waitingTime="18.00" waitingCount="1" stopTime="0.00" timeLoss="28.71" rerouteNo="1" devices="tripinfo_f_80.0 routing_f_80.0" vType="DEFAULT_VEHTYPE" speedFactor="1.00" vaporized=""/>
    <tripinfo id="f_7.1" depart="21.00" departLane="-E3_0" departPos="5.10" departSpeed="0.00" departDelay="13.00" arrival="56.00" arrivalLane="E7_2" arrivalPos="83.20" arrivalSpeed="14.33" duration="35.00" routeLength="270.43" waitingTime="3.00" waitingCount="1" stopTime="0.00" timeLoss="16.52" rerouteNo="0" devices="tripinfo_f_7.1 routing_f_7.1" vType="DEFAULT_VEHTYPE" speedFactor="1.12" vaporized=""/>
    <tripinfo id="f_81.0" depart="16.00" departLane="-E14_0" departPos="5.10" departSpeed="0.00" departDelay="1.00" arrival="56.00" arrivalLane="E16_0" arrivalPos="83.20" arrivalSpeed="13.93" duration="40.00" routeLength="370.53" waitingTime="1.00" waitingCount="1" stopTime="0.00" timeLoss="12.85" rerouteNo="1" devices="tripinfo_f_81.0 routing_f_81.0" vType="DEFAULT_VEHTYPE" speedFactor="1.03" vaporized=""/>
    <tripinfo id="f_80.1" depart="18.00" departLane="-E14_0" departPos="5.10" departSpeed="0.00" departDelay="2.00" arrival="56.00" arrivalLane="E17_2" arrivalPos="83.20" arrivalSpeed="13.96" duration="38.00" routeLength="270.43" waitingTime="7.00" waitingCount="1" stopTime="0.00" timeLoss="19.49" rerouteNo="1" devices="tripinfo_f_80.1 routing_f_80.1" vType="DEFAULT_VEHTYPE" speedFactor="1.10" vaporized=""/>
    <tripinfo id="f_18.0" depart="2.00" departLane="-E9_0" departPos="5.10" departSpeed="0.00" departDelay="1.00" arrival="57.00" arrivalLane="E14_0" arrivalPos="83.20" arrivalSpeed="14.22" duration="55.00" routeLength="466.60" waitingTime="5.00" waitingCount="1" stopTime="0.00" timeLoss="21.03" rerouteNo="0" devices="tripinfo_f_18.0 routing_f_18.0" vType="DEFAULT_VEHTYPE" speedFactor="1.05" vaporized=""/>
    <tripinfo id="f_10.1" depart="10.00" departLane="-E3_0" departPos="5.10" departSpeed="0.00" departDelay="6.00" arrival="57.00" arrivalLane="E9_0" arrivalPos="83.20" arrivalSpeed="15.65" duration="47.00" routeLength="245.76" waitingTime="17.00" waitingCount="1" stopTime="0.00" timeLoss="29.83" rerouteNo="0" devices="tripinfo_f_10.1 routing_f_10.1" vType="DEFAULT_VEHTYPE" speedFactor="1.17" vaporized=""/>
    <tripinfo id="f_8.0" depart="13.00" departLane="-E3_0" departPos="5.10" departSpeed="0.00" departDelay="9.00" arrival="57.00" arrivalLane="E6_2" arrivalPos="83.20" arrivalSpeed="15.82" duration="44.00" routeLength="291.07" waitingTime="7.00" waitingCount="2" stopTime="0.00" timeLoss="25.70" rerouteNo="0" devices="tripinfo_f_8.0 routing_f_8.0" vType="DEFAULT_VEHTYPE" speedFactor="1.18" vaporized=""/>
    <tripinfo id="f_100.1" depart="32.00" departLane="-E23_0" departPos="5.10" departSpeed="0.00" departDelay="5.00" arrival="57.00" arrivalLane="E13_0" arrivalPos="83.20" arrivalSpeed="13.33" duration="25.00" routeLength="170.33" waitingTime="1.00" waitingCount="1" stopTime="0.00" timeLoss="11.68" rerouteNo="0" devices="tripinfo_f_100.1 routing_f_100.1" vType="DEFAULT_VEHTYPE" speedFactor="1.03" vaporized=""/>
    <tripinfo id="f_2.0" depart="3.00" departLane="-E3_0" departPos="5.10" departSpeed="0.00" departDelay="3.00" arrival="58.00" arrivalLane="E15_0" arrivalPos="83.20" arrivalSpeed="10.65" duration="55.00" routeLength="466.60" waitingTime="1.00" waitingCount="1" stopTime="0.00" timeLoss="13.48" rerouteNo="0" devices="tripinfo_f_2.0 routing_f_2.0" vType="DEFAULT_VEHTYPE" speedFactor="0.83" vaporized=""/>
    <tripinfo id="f_65.0" depart="9.00" departLane="-E16_0" departPos="5.10" departSpeed="0.00" departDelay="1.00" arrival="60.00" arrivalLane="E16_3" arrivalPos="83.20" arrivalSpeed="13.11" duration="51.00" routeLength="165.97" waitingTime="24.00" waitingCount="2" stopTime="0.00" timeLoss="38.10" rerouteNo="0" devices="tripinfo_f_65.0 routing_f_65.0" vType="DEFAULT_VEHTYPE" speedFactor="0.97" vaporized=""/>
    <tripinfo id="f_10.2" depart="15.00" departLane="-E3_0" departPos="5.10" departSpeed="0.00" departDelay="8.00" arrival="61.00" arrivalLane="E9_0" arrivalPos="83.20" arrivalSpeed="12.17" duration="46.00" routeLength="245.76" waitingTime="12.00" waitingCount="1" stopTime="0.00" timeLoss="23.74" rerouteNo="0" devices="tripinfo_f_10.2 routing_f_10.2" vType="DEFAULT_VEHTYPE" speedFactor="0.88" vaporized=""/>
    <tripinfo id="f_20.0" depart="9.00" departLane="-E9_0" departPos="5.10" departSpeed="0.00" departDelay="0.00" arrival="62.00" arrivalLane="E17_2" arrivalPos="83.20" arrivalSpeed="13.69" duration="53.00" routeLength="591.37" waitingTime="0.00" waitingCount="0" stopTime="0.00" timeLoss="9.44" rerouteNo="1" devices="tripinfo_f_20.0 routing_f_20.0" vType="DEFAULT_VEHTYPE" speedFactor="0.99" vaporized=""/>
    <tripinfo id="f_74.0" depart="14.00" departLane="-E15_0" departPos="5.10" departSpeed="0.00" departDelay="1.00" arrival="63.00" arrivalLane="E7_2" arrivalPos="83.20" arrivalSpeed="13.41" duration="49.00" routeLength="591.37" waitingTime="1.00" waitingCount="1" stopTime="0.00" timeLoss="6.76" rerouteNo="1" devices="tripinfo_f_74.0 routing_f_74.0" vType="DEFAULT_VEHTYPE" speedFactor="1.02" vaporized=""/>
    <tripinfo id="f_76.0" depart="20.00" departLane="-E15_0" departPos="5.10" departSpeed="0.00" departDelay="3.00" arrival="63.00" arrivalLane="E23_0" arrivalPos="83.20" arrivalSpeed="13.79" duration="43.00" routeLength="391.17" waitingTime="0.00" waitingCount="0" stopTime="0.00" timeLoss="14.44" rerouteNo="1" devices="tripinfo_f_76.0 routing_f_76.0" vType="DEFAULT_VEHTYPE" speedFactor="1.02" vaporized=""/>
    <tripinfo id="f_100.2" depart="42.00" departLane="-E23_0" departPos="5.10" departSpeed="0.00" departDelay="11.00" arrival="63.00" arrivalLane="E13_0" arrivalPos="83.20" arrivalSpeed="10.52" duration="21.00" routeLength="170.33" waitingTime="0.00" waitingCount="0" stopTime="0.00" timeLoss="4.97" rerouteNo="0" devices="tripinfo_f_100.2 routing_f_100.2" vType="DEFAULT_VEHTYPE" speedFactor="0.83" vaporized=""/>
    <tripinfo id="f_24.0" depart="5.00" departLane="-E5_0" departPos="5.10" departSpeed="0.00" departDelay="0.00" arrival="64.00" arrivalLane="E9_0" arrivalPos="83.20" arrivalSpeed="13.14" duration="59.00" routeLength="345.86" waitingTime="21.00" waitingCount="1" stopTime="0.00" timeLoss="33.50" rerouteNo="1" devices="tripinfo_f_24.0 routing_f_24.0" vType="DEFAULT_VEHTYPE" speedFactor="1.03" vaporized=""/>
    <tripinfo id="f_26.0" depart="10.00" departLane="-E5_0" departPos="5.10" departSpeed="0.00" departDelay="0.00" arrival="64.00" arrivalLane="E22_0" arrivalPos="83.20" arrivalSpeed="13.62" duration="54.00" routeLength="470.63" waitingTime="5.00" waitingCount="1" stopTime="0.00" timeLoss="19.66" rerouteNo="1" devices="tripinfo_f_26.0 routing_f_26.0" vType="DEFAULT_VEHTYPE" speedFactor="1.02" vaporized=""/>
    <tripinfo id="f_26.1" depart="12.00" departLane="-E5_0" departPos="5.10" departSpeed="0.00" departDelay="1.00" arrival="64.00" arrivalLane="E22_2" arrivalPos="83.20" arrivalSpeed="12.64" duration="52.00" routeLength="470.63" waitingTime="3.00" waitingCount="1" stopTime="0.00" timeLoss="15.46" rerouteNo="1" devices="tripinfo_f_26.1 routing_f_26.1" vType="DEFAULT_VEHTYPE" speedFactor="0.96" vaporized=""/>
    <tripinfo id="f_35.0" depart="12.00" departLane="-E6_0" departPos="5.10" departSpeed="0.00" departDelay="1.00" arrival="64.00" arrivalLane="E3_0" arrivalPos="83.20" arrivalSpeed="13.42" duration="52.00" routeLength="270.43" waitingTime="19.00" waitingCount="1" stopTime="0.00" timeLoss="32.24" rerouteNo="1" devices="tripinfo_f_35.0 routing_f_35.0" vType="DEFAULT_VEHTYPE" speedFactor="1.03" vaporized=""/>
    <tripinfo id="f_92.0" depart="10.00" departLane="-E13_0" departPos="5.10" departSpeed="0.00" departDelay="8.00" arrival="65.00" arrivalLane="E17_0" arrivalPos="83.20" arrivalSpeed="12.47" duration="55.00" routeLength="370.53" waitingTime="15.00" waitingCount="1" stopTime="0.00" timeLoss="25.74" rerouteNo="1" devices="tripinfo_f_92.0 routing_f_92.0" vType="DEFAULT_VEHTYPE" speedFactor="0.95" vaporized=""/>
    <tripinfo id="f_101.0" depart="4.00" departLane="-E23_0" departPos="5.10" departSpeed="0.00" departDelay="2.00" arrival="66.00" arrivalLane="E14_0" arrivalPos="83.20" arrivalSpeed="13.84" duration="62.00" routeLength="270.43" waitingTime="31.00" waitingCount="1" stopTime="0.00" timeLoss="41.78" rerouteNo="1" devices="tripinfo_f_101.0 routing_f_101.0" vType="DEFAULT_VEHTYPE" speedFactor="1.02" vaporized=""/>
    <tripinfo id="f_90.0" depart="17.00" departLane="-E13_0" departPos="5.10" departSpeed="0.00" departDelay="10.00" arrival="66.00" arrivalLane="E15_0" arrivalPos="83.20" arrivalSpeed="12.65" duration="49.00" routeLength="345.86" waitingTime="8.00" waitingCount="1" stopTime="0.00" timeLoss="22.33" rerouteNo="1" devices="tripinfo_f_90.0 routing_f_90.0" vType="DEFAULT_VEHTYPE" speedFactor="1.00" vaporized=""/>
    <tripinfo id="f_35.1" depart="14.00" departLane="-E6_0" departPos="5.10" departSpeed="0.00" departDelay="2.00" arrival="66.00" arrivalLane="E3_0" arrivalPos="83.20" arrivalSpeed="14.80" duration="52.00" routeLength="270.43" waitingTime="20.00" waitingCount="1" stopTime="0.00" timeLoss="34.03" rerouteNo="1" devices="tripinfo_f_35.1 routing_f_35.1" vType="DEFAULT_VEHTYPE" speedFactor="1.15" vaporized=""/>
    <tripinfo id="f_14.0" depart="17.00" departLane="-E9_0" departPos="5.10" departSpeed="0.00" departDelay="3.00" arrival="66.00" arrivalLane="E6_2" arrivalPos="83.20" arrivalSpeed="12.73" duration="49.00" routeLength="391.17" waitingTime="1.00" waitingCount="1" stopTime="0.00" timeLoss="19.92" rerouteNo="0" devices="tripinfo_f_14.0 routing_f_14.0" vType="DEFAULT_VEHTYPE" speedFactor="1.01" vaporized=""/>
    <tripinfo id="f_75.0" depart="22.00" departLane="-E15_0" departPos="5.10" departSpeed="0.00" departDelay="3.00" arrival="66.00" arrivalLane="E22_2" arrivalPos="83.20" arrivalSpeed="13.60" duration="44.00" routeLength="491.27" waitingTime="0.00" waitingCount="0" stopTime="0.00" timeLoss="7.96" rerouteNo="1" devices="tripinfo_f_75.0 routing_f_75.0" vType="DEFAULT_VEHTYPE" speedFactor="1.00" vaporized=""/>
    <tripinfo id="f_22.0" depart="22.00" departLane="-E9_0" departPos="5.10" departSpeed="0.00" departDelay="0.00" arrival="66.00" arrivalLane="E6_0" arrivalPos="83.20" arrivalSpeed="13.34" duration="44.00" routeLength="391.17" waitingTime="0.00" waitingCount="0" stopTime="0.00" timeLoss="14.13" rerouteNo="1" devices="tripinfo_f_22.0 routing_f_22.0" vType="DEFAULT_VEHTYPE" speedFactor="0.96" vaporized=""/>
    <tripinfo id="f_100.3" depart="49.00" departLane="-E23_0" departPos="5.10" departSpeed="0.00" departDelay="6.00" arrival="67.00" arrivalLane="E13_0" arrivalPos="83.20" arrivalSpeed="13.66" duration="18.00" routeLength="170.33" waitingTime="0.00" waitingCount="0" stopTime="0.00" timeLoss="5.04" rerouteNo="0" devices="tripinfo_f_100.3 routing_f_100.3" vType="DEFAULT_VEHTYPE" speedFactor="0.99" vaporized=""/>
    <tripinfo id="f_24.1" depart="15.00" departLane="-E5_0" departPos="5.10" departSpeed="0.00" departDelay="1.00" arrival="68.00" arrivalLane="E9_0" arrivalPos="83.20" arrivalSpeed="11.72" duration="53.00" routeLength="345.86" waitingTime="10.00" waitingCount="1" stopTime="0.00" timeLoss="24.19" rerouteNo="1" devices="tripinfo_f_24.1 routing_f_24.1" vType="DEFAULT_VEHTYPE" speedFactor="0.91" vaporized=""/>
    <tripinfo id="f_76.1" depart="27.00" departLane="-E15_0" departPos="5.10" departSpeed="0.00" departDelay="6.00" arrival="69.00" arrivalLane="E23_0" arrivalPos="83.20" arrivalSpeed="12.86" duration="42.00" routeLength="391.17" waitingTime="0.00" waitingCount="0" stopTime="0.00" timeLoss="11.97" rerouteNo="1" devices="tripinfo_f_76.1 routing_f_76.1" vType="DEFAULT_VEHTYPE" speedFactor="0.97" vaporized=""/>
    <tripinfo id="f_34.1" depart="51.00" departLane="-E6_0" departPos="5.10" departSpeed="0.00" departDelay="2.00" arrival="69.00" arrivalLane="E5_0" arrivalPos="83.20" arrivalSpeed="15.26" duration="18.00" routeLength="170.33" waitingTime="0.00" waitingCount="0" stopTime="0.00" timeLoss="6.21" rerouteNo="0" devices="tripinfo_f_34.1 routing_f_34.1" vType="DEFAULT_VEHTYPE" speedFactor="1.15" vaporized=""/>
    <tripinfo id="f_66.1" depart="50.00" departLane="-E22_0" departPos="5.10" departSpeed="0.00" departDelay="0.00" arrival="69.00" arrivalLane="E22_3" arrivalPos="83.20" arrivalSpeed="14.82" duration="19.00" routeLength="165.97" waitingTime="0.00" waitingCount="0" stopTime="0.00" timeLoss="7.27" rerouteNo="0" devices="tripinfo_f_66.1 routing_f_66.1" vType="DEFAULT_VEHTYPE" speedFactor="1.16" vaporized=""/>
    <tripinfo id="f_101.1" depart="6.00" departLane="-E23_0" departPos="5.10" departSpeed="0.00" departDelay="3.00" arrival="70.00" arrivalLane="E14_0" arrivalPos="83.20" arrivalSpeed="12.39" duration="64.00" routeLength="270.43" waitingTime="30.00" waitingCount="1" stopTime="0.00" timeLoss="41.82" rerouteNo="1" devices="tripinfo_f_101.1 routing_f_101.1" vType="DEFAULT_VEHTYPE" speedFactor="0.93" vaporized=""/>
    <tripinfo id="f_76.2" depart="29.00" departLane="-E15_0" departPos="5.10" departSpeed="0.00" departDelay="4.00" arrival="70.00" arrivalLane="E23_2" arrivalPos="83.20" arrivalSpeed="14.76" duration="41.00" routeLength="391.17" waitingTime="0.00" waitingCount="0" stopTime="0.00" timeLoss="14.33" rerouteNo="1" devices="tripinfo_f_76.2 routing_f_76.2" vType="DEFAULT_VEHTYPE" speedFactor="1.09" vaporized=""/>
    <tripinfo id="f_24.2" depart="19.00" departLane="-E5_0" departPos="5.10" departSpeed="0.00" departDelay="3.00" arrival="71.00" arrivalLane="E9_0" arrivalPos="83.20" arrivalSpeed="12.78" duration="52.00" routeLength="345.86" waitingTime="8.00" waitingCount="1" stopTime="0.00" timeLoss="22.82" rerouteNo="1" devices="tripinfo_f_24.2 routing_f_24.2" vType="DEFAULT_VEHTYPE" speedFactor="0.93" vaporized=""/>
    <tripinfo id="f_35.2" depart="40.00" departLane="-E6_0" departPos="5.10" departSpeed="0.00" departDelay="0.00" arrival="72.00" arrivalLane="E3_0" arrivalPos="83.20" arrivalSpeed="12.32" duration="32.00" routeLength="270.43" waitingTime="0.00" waitingCount="0" stopTime="0.00" timeLoss="9.02" rerouteNo="1" devices="tripinfo_f_35.2 routing_f_35.2" vType="DEFAULT_VEHTYPE" speedFactor="0.92" vaporized=""/>
    <tripinfo id="f_122.0" depart="22.00" departLane="-E7_0" departPos="5.10" departSpeed="0.00" departDelay="3.00" arrival="73.00" arrivalLane="E9_3" arrivalPos="83.20" arrivalSpeed="13.02" duration="51.00" routeLength="190.97" waitingTime="24.00" waitingCount="2" stopTime="0.00" timeLoss="36.56" rerouteNo="0" devices="tripinfo_f_122.0 routing_f_122.0" vType="DEFAULT_VEHTYPE" speedFactor="1.01" vaporized=""/>
    <tripinfo id="f_102.0" depart="0.00" departLane="-E23_0" departPos="5.10" departSpeed="0.00" departDelay="0.00" arrival="74.00" arrivalLane="E15_0" arrivalPos="83.20" arrivalSpeed="12.72" duration="74.00" routeLength="370.53" waitingTime="31.00" waitingCount="1" stopTime="0.00" timeLoss="43.69" rerouteNo="1" devices="tripinfo_f_102.0 routing_f_102.0" vType="DEFAULT_VEHTYPE" speedFactor="0.94" vaporized=""/>
    <tripinfo id="f_48.0" depart="13.00" departLane="-E16_0" departPos="5.10" departSpeed="0.00" departDelay="2.00" arrival="74.00" arrivalLane="E22_2" arrivalPos="83.20" arrivalSpeed="12.36" duration="61.00" routeLength="395.20" waitingTime="22.00" waitingCount="1" stopTime="0.00" timeLoss="31.38" rerouteNo="1" devices="tripinfo_f_48.0 routing_f_48.0" vType="DEFAULT_VEHTYPE" speedFactor="0.98" vaporized=""/>
    <tripinfo id="f_48.1" depart="18.00" departLane="-E16_0" departPos="5.10" departSpeed="0.00" departDelay="6.00" arrival="75.00" arrivalLane="E22_0" arrivalPos="83.20" arrivalSpeed="13.19" duration="57.00" routeLength="395.20" waitingTime="18.00" waitingCount="1" stopTime="0.00" timeLoss="28.51" rerouteNo="1" devices="tripinfo_f_48.1 routing_f_48.1" vType="DEFAULT_VEHTYPE" speedFactor="1.00" vaporized=""/>
    <tripinfo id="f_61.0" depart="15.00" departLane="-E17_0" departPos="5.10" departSpeed="0.00" departDelay="3.00" arrival="75.00" arrivalLane="E23_2" arrivalPos="83.20" arrivalSpeed="12.94" duration="60.00" routeLength="395.20" waitingTime="16.00" waitingCount="1" stopTime="0.00" timeLoss="31.17" rerouteNo="1" devices="tripinfo_f_61.0 routing_f_61.0" vType="DEFAULT_VEHTYPE" speedFactor="1.01" vaporized=""/>
    <tripinfo id="f_101.2" depart="29.00" departLane="-E23_0" departPos="5.10" departSpeed="0.00" departDelay="6.00" arrival="75.00" arrivalLane="E14_0" arrivalPos="83.20" arrivalSpeed="12.23" duration="46.00" routeLength="270.43" waitingTime="12.00" waitingCount="1" stopTime="0.00" timeLoss="24.20" rerouteNo="1" devices="tripinfo_f_101.2 routing_f_101.2" vType="DEFAULT_VEHTYPE" speedFactor="0.93" vaporized=""/>
    <tripinfo id="f_103.0" depart="14.00" departLane="-E23_0" departPos="5.10" departSpeed="0.00" departDelay="2.00" arrival="76.00" arrivalLane="E17_2" arrivalPos="83.20" arrivalSpeed="12.70" duration="62.00" routeLength="395.20" waitingTime="20.00" waitingCount="1" stopTime="0.00" timeLoss="32.62" rerouteNo="1" devices="tripinfo_f_103.0 routing_f_103.0" vType="DEFAULT_VEHTYPE" speedFactor="1.00" vaporized=""/>
    <tripinfo id="f_65.1" depart="47.00" departLane="-E16_0" departPos="5.10" departSpeed="0.00" departDelay="1.00" arrival="76.00" arrivalLane="E16_3" arrivalPos="83.20" arrivalSpeed="13.35" duration="29.00" routeLength="165.97" waitingTime="0.00" waitingCount="0" stopTime="0.00" timeLoss="15.99" rerouteNo="0" devices="tripinfo_f_65.1 routing_f_65.1" vType="DEFAULT_VEHTYPE" speedFactor="0.98" vaporized=""/>
    <tripinfo id="f_102.1" depart="12.00" departLane="-E23_0" departPos="5.10" departSpeed="0.00" departDelay="0.00" arrival="77.00" arrivalLane="E15_0" arrivalPos="83.20" arrivalSpeed="13.60" duration="65.00" routeLength="370.53" waitingTime="24.00" waitingCount="1" stopTime="0.00" timeLoss="38.38" rerouteNo="1" devices="tripinfo_f_102.1 routing_f_102.1" vType="DEFAULT_VEHTYPE" speedFactor="1.03" vaporized=""/>
    <tripinfo id="f_48.2" depart="20.00" departLane="-E16_0" departPos="5.10" departSpeed="0.00" departDelay="3.00" arrival="77.00" arrivalLane="E22_2" arrivalPos="83.20" arrivalSpeed="11.81" duration="57.00" routeLength="395.20" waitingTime="15.00" waitingCount="1" stopTime="0.00" timeLoss="25.91" rerouteNo="1" devices="tripinfo_f_48.2 routing_f_48.2" vType="DEFAULT_VEHTYPE" speedFactor="0.94" vaporized=""/>
    <tripinfo id="f_101.3" depart="45.00" departLane="-E23_0" departPos="5.10" departSpeed="0.00" departDelay="14.00" arrival="77.00" arrivalLane="E14_0" arrivalPos="83.20" arrivalSpeed="14.00" duration="32.00" routeLength="270.43" waitingTime="0.00" waitingCount="0" stopTime="0.00" timeLoss="13.31" rerouteNo="1" devices="tripinfo_f_101.3 routing_f_101.3" vType="DEFAULT_VEHTYPE" speedFactor="1.09" vaporized=""/>
    <tripinfo id="f_9.0" depart="9.00" departLane="-E3_0" departPos="5.10" departSpeed="0.00" departDelay="6.00" arrival="79.00" arrivalLane="E5_3" arrivalPos="83.20" arrivalSpeed="13.43" duration="70.00" routeLength="287.04" waitingTime="33.00" waitingCount="2" stopTime="0.00" timeLoss="47.83" rerouteNo="0" devices="tripinfo_f_9.0 routing_f_9.0" vType="DEFAULT_VEHTYPE" speedFactor="1.01" vaporized=""/>
    <tripinfo id="f_36.0" depart="16.00" departLane="-E6_0" departPos="5.10" departSpeed="0.00" departDelay="0.00" arrival="79.00" arrivalLane="E7_0" arrivalPos="83.20" arrivalSpeed="11.19" duration="63.00" routeLength="395.20" waitingTime="19.00" waitingCount="1" stopTime="0.00" timeLoss="29.76" rerouteNo="1" devices="tripinfo_f_36.0 routing_f_36.0" vType="DEFAULT_VEHTYPE" speedFactor="0.87" vaporized=""/>
    <tripinfo id="f_101.4" depart="48.00" departLane="-E23_0" departPos="5.10" departSpeed="0.00" departDelay="12.00" arrival="79.00" arrivalLane="E14_0" arrivalPos="83.20" arrivalSpeed="14.12" duration="31.00" routeLength="270.43" waitingTime="0.00" waitingCount="0" stopTime="0.00" timeLoss="11.28" rerouteNo="1" devices="tripinfo_f_101.4 routing_f_101.4" vType="DEFAULT_VEHTYPE" speedFactor="1.02" vaporized=""/>
    <tripinfo id="f_100.4" depart="61.00" departLane="-E23_0" departPos="5.10" departSpeed="0.00" departDelay="4.00" arrival="79.00" arrivalLane="E13_0" arrivalPos="83.20" arrivalSpeed="15.04" duration="18.00" routeLength="170.33" waitingTime="0.00" waitingCount="0" stopTime="0.00" timeLoss="5.72" rerouteNo="0" devices="tripinfo_f_100.4 routing_f_100.4" vType="DEFAULT_VEHTYPE" speedFactor="1.11" vaporized=""/>