<?xml version="1.0" encoding="UTF-8"?>

<!-- generated on 2022-11-28 13:26:17 by Eclipse SUMO GUI Version 1.14.1
<configuration xmlns:xsi="http://www.w3.org/2001/XMLSchema-instance" xsi:noNamespaceSchemaLocation="http://sumo.dlr.de/xsd/sumoConfiguration.xsd">

    <input>
        <net-file value="C:\Users\connp\OneDrive\Documents\_Pitt\Traffic_Capstone\team-project\3x3Grid\network.net.xml"/>
        <route-files value="C:\Users\connp\OneDrive\Documents\_Pitt\Traffic_Capstone\team-project\3x3Grid\routes_EMS.rou.xml"/>
        <additional-files value="C:\Users\connp\OneDrive\Documents\_Pitt\Traffic_Capstone\team-project\3x3Grid\additionals_EMS.add.xml"/>
    </input>

    <time>
        <begin value="0"/>
        <end value="1000"/>
    </time>

    <processing>
        <lateral-resolution value="1.8"/>
    </processing>

</configuration>
-->

<meandata xmlns:xsi="http://www.w3.org/2001/XMLSchema-instance" xsi:noNamespaceSchemaLocation="http://sumo.dlr.de/xsd/meandata_file.xsd">
    <interval begin="0.00" end="507.00" id="EMSData">
        <edge id="-E3" sampledSeconds="59.14" traveltime="39.69" overlapTraveltime="41.29" density="1.43" laneDensity="0.36" occupancy="0.23" waitingTime="30.00" timeLoss="53.09" speed="2.13" speedRelative="0.15" departed="1" arrived="0" entered="0" left="1" laneChangedFrom="2" laneChangedTo="2"/>
        <edge id="E1" sampledSeconds="6.53" traveltime="5.99" overlapTraveltime="6.53" density="0.20" laneDensity="0.05" occupancy="0.03" waitingTime="0.00" timeLoss="3.19" speed="10.67" speedRelative="0.77" departed="0" arrived="0" entered="1" left="1" laneChangedFrom="1" laneChangedTo="1"/>
        <edge id="E11" sampledSeconds="14.31" traveltime="13.08" overlapTraveltime="14.31" density="0.45" laneDensity="0.11" occupancy="0.07" waitingTime="2.00" timeLoss="10.96" speed="4.87" speedRelative="0.35" departed="0" arrived="0" entered="1" left="1" laneChangedFrom="2" laneChangedTo="2"/>
        <edge id="E14" sampledSeconds="5.21" traveltime="5.09" overlapTraveltime="5.46" density="0.13" laneDensity="0.03" occupancy="0.02" waitingTime="0.00" timeLoss="1.17" speed="16.15" speedRelative="1.16" departed="0" arrived="1" entered="1" left="0" laneChangedFrom="0" laneChangedTo="0"/>
    </interval>
    <interval begin="0.00" end="507.00" id="OtherData">
        <edge id="-E0" sampledSeconds="2429.85" traveltime="34.28" overlapTraveltime="37.16" density="75.83" laneDensity="18.96" occupancy="9.10" waitingTime="1539.00" timeLoss="2096.99" speed="1.84" speedRelative="0.13" departed="0" arrived="0" entered="68" left="64" laneChangedFrom="76" laneChangedTo="76"/>
        <edge id="-E1" sampledSeconds="2403.62" traveltime="34.02" overlapTraveltime="35.36" density="75.01" laneDensity="18.75" occupancy="9.06" waitingTime="1609.00" timeLoss="2061.62" speed="1.93" speedRelative="0.14" departed="0" arrived="0" entered="69" left="67" laneChangedFrom="47" laneChangedTo="47"/>
        <edge id="-E10" sampledSeconds="5118.87" traveltime="69.78" overlapTraveltime="71.02" density="159.75" laneDensity="39.94" occupancy="19.63" waitingTime="3826.00" timeLoss="4748.30" speed="0.96" speedRelative="0.07" departed="0" arrived="0" entered="75" left="68" laneChangedFrom="64" laneChangedTo="64"/>
        <edge id="-E11" sampledSeconds="1984.82" traveltime="19.55" overlapTraveltime="21.79" density="61.94" laneDensity="15.49" occupancy="7.37" waitingTime="947.00" timeLoss="1516.22" speed="3.13" speedRelative="0.23" departed="0" arrived="0" entered="93" left="89" laneChangedFrom="81" laneChangedTo="81"/>
        <edge id="-E12" sampledSeconds="3907.76" traveltime="27.92" overlapTraveltime="29.21" density="121.96" laneDensity="30.49" occupancy="14.74" waitingTime="2294.00" timeLoss="3215.29" speed="2.34" speedRelative="0.17" departed="0" arrived="0" entered="137" left="127" laneChangedFrom="105" laneChangedTo="105"/>
        <edge id="-E13" sampledSeconds="9692.96" traveltime="60.98" overlapTraveltime="62.34" density="234.29" laneDensity="58.57" occupancy="29.03" waitingTime="6170.00" timeLoss="8693.80" speed="1.39" speedRelative="0.10" departed="177" arrived="0" entered="0" left="156" laneChangedFrom="208" laneChangedTo="208"/>
        <edge id="-E14" sampledSeconds="7478.67" traveltime="77.72" overlapTraveltime="78.66" density="180.77" laneDensity="45.19" occupancy="22.48" waitingTime="5350.00" timeLoss="6856.49" speed="1.10" speedRelative="0.08" departed="115" arrived="0" entered="0" left="94" laneChangedFrom="142" laneChangedTo="142"/>
        <edge id="-E15" sampledSeconds="11121.70" traveltime="172.76" overlapTraveltime="174.92" density="268.83" laneDensity="67.21" occupancy="33.50" waitingTime="9253.00" timeLoss="10717.24" speed="0.50" speedRelative="0.04" departed="84" arrived="0" entered="0" left="59" laneChangedFrom="96" laneChangedTo="96"/>
        <edge id="-E16" sampledSeconds="9300.98" traveltime="82.58" overlapTraveltime="84.16" density="224.82" laneDensity="56.20" occupancy="27.89" waitingTime="6691.00" timeLoss="8582.50" speed="1.03" speedRelative="0.07" departed="129" arrived="0" entered="0" left="112" laneChangedFrom="167" laneChangedTo="167"/>
        <edge id="-E17" sampledSeconds="11534.06" traveltime="95.23" overlapTraveltime="97.35" density="278.79" laneDensity="69.70" occupancy="34.59" waitingTime="8487.00" timeLoss="10763.23" speed="0.89" speedRelative="0.06" departed="138" arrived="0" entered="0" left="120" laneChangedFrom="168" laneChangedTo="168"/>
        <edge id="-E18" sampledSeconds="2235.91" traveltime="20.12" overlapTraveltime="21.36" density="69.78" laneDensity="17.44" occupancy="8.41" waitingTime="1119.00" timeLoss="1703.17" speed="3.19" speedRelative="0.23" departed="0" arrived="0" entered="105" left="104" laneChangedFrom="85" laneChangedTo="85"/>
        <edge id="-E19" sampledSeconds="2674.28" traveltime="21.58" overlapTraveltime="23.12" density="83.46" laneDensity="20.87" occupancy="10.03" waitingTime="1402.00" timeLoss="2091.85" speed="2.95" speedRelative="0.21" departed="0" arrived="0" entered="120" left="111" laneChangedFrom="91" laneChangedTo="91"/>
        <edge id="-E2" sampledSeconds="2459.71" traveltime="29.20" overlapTraveltime="32.86" density="76.76" laneDensity="19.19" occupancy="8.93" waitingTime="1574.00" timeLoss="2077.65" speed="2.08" speedRelative="0.15" departed="0" arrived="0" entered="75" left="74" laneChangedFrom="61" laneChangedTo="61"/>
        <edge id="-E20" sampledSeconds="2374.20" traveltime="27.45" overlapTraveltime="29.42" density="74.10" laneDensity="18.52" occupancy="8.91" waitingTime="1264.00" timeLoss="1971.01" speed="2.32" speedRelative="0.17" departed="0" arrived="0" entered="87" left="76" laneChangedFrom="130" laneChangedTo="130"/>
        <edge id="-E21" sampledSeconds="1783.42" traveltime="28.64" overlapTraveltime="30.54" density="55.66" laneDensity="13.91" occupancy="6.71" waitingTime="901.00" timeLoss="1492.44" speed="2.23" speedRelative="0.16" departed="0" arrived="0" entered="60" left="55" laneChangedFrom="132" laneChangedTo="132"/>
        <edge id="-E22" sampledSeconds="678.11" traveltime="40.45" overlapTraveltime="45.03" density="16.39" laneDensity="4.10" occupancy="1.97" waitingTime="385.00" timeLoss="563.97" speed="1.92" speedRelative="0.14" departed="16" arrived="0" entered="0" left="16" laneChangedFrom="30" laneChangedTo="30"/>
        <edge id="-E23" sampledSeconds="10322.93" traveltime="95.17" overlapTraveltime="97.23" density="249.52" laneDensity="62.38" occupancy="30.96" waitingTime="7162.00" timeLoss="9658.81" speed="0.89" speedRelative="0.06" departed="122" arrived="0" entered="0" left="106" laneChangedFrom="159" laneChangedTo="159"/>
        <edge id="-E3" sampledSeconds="11343.24" traveltime="79.65" overlapTraveltime="81.85" density="274.18" laneDensity="68.55" occupancy="33.98" waitingTime="7946.00" timeLoss="10463.28" speed="1.06" speedRelative="0.08" departed="158" arrived="0" entered="0" left="137" laneChangedFrom="185" laneChangedTo="185"/>
        <edge id="-E4" sampledSeconds="1966.73" traveltime="22.62" overlapTraveltime="23.87" density="61.38" laneDensity="15.34" occupancy="7.41" waitingTime="1052.00" timeLoss="1538.00" speed="2.86" speedRelative="0.21" departed="0" arrived="0" entered="83" left="80" laneChangedFrom="76" laneChangedTo="76"/>
        <edge id="-E5" sampledSeconds="10447.18" traveltime="106.27" overlapTraveltime="107.86" density="252.52" laneDensity="63.13" occupancy="31.42" waitingTime="7697.00" timeLoss="9826.51" speed="0.80" speedRelative="0.06" departed="115" arrived="0" entered="0" left="94" laneChangedFrom="146" laneChangedTo="146"/>
        <edge id="-E6" sampledSeconds="8600.82" traveltime="94.84" overlapTraveltime="96.93" density="207.89" laneDensity="51.97" occupancy="25.80" waitingTime="6269.00" timeLoss="8031.22" speed="0.89" speedRelative="0.06" departed="107" arrived="0" entered="0" left="88" laneChangedFrom="136" laneChangedTo="136"/>
        <edge id="-E7" sampledSeconds="8940.37" traveltime="101.72" overlapTraveltime="103.54" density="216.10" laneDensity="54.03" occupancy="26.85" waitingTime="6803.00" timeLoss="8380.04" speed="0.84" speedRelative="0.06" departed="102" arrived="0" entered="0" left="85" laneChangedFrom="160" laneChangedTo="160"/>
        <edge id="-E8" sampledSeconds="1580.77" traveltime="21.20" overlapTraveltime="23.61" density="49.33" laneDensity="12.33" occupancy="5.88" waitingTime="932.00" timeLoss="1240.24" speed="2.89" speedRelative="0.21" departed="0" arrived="0" entered="68" left="65" laneChangedFrom="41" laneChangedTo="41"/>
        <edge id="-E9" sampledSeconds="10343.04" traveltime="122.07" overlapTraveltime="124.18" density="250.01" laneDensity="62.50" occupancy="31.11" waitingTime="8124.00" timeLoss="9817.25" speed="0.70" speedRelative="0.05" departed="104" arrived="0" entered="0" left="77" laneChangedFrom="125" laneChangedTo="125"/>
        <edge id="E0" sampledSeconds="1190.56" traveltime="20.23" overlapTraveltime="21.23" density="37.16" laneDensity="9.29" occupancy="4.48" waitingTime="665.00" timeLoss="899.20" speed="3.21" speedRelative="0.23" departed="0" arrived="0" entered="57" left="55" laneChangedFrom="21" laneChangedTo="21"/>
        <edge id="E1" sampledSeconds="3018.90" traveltime="23.45" overlapTraveltime="25.16" density="94.22" laneDensity="23.55" occupancy="11.36" waitingTime="1681.00" timeLoss="2406.28" speed="2.71" speedRelative="0.20" departed="0" arrived="0" entered="121" left="116" laneChangedFrom="78" laneChangedTo="78"/>
        <edge id="E10" sampledSeconds="2066.47" traveltime="28.07" overlapTraveltime="30.84" density="64.49" laneDensity="16.12" occupancy="7.75" waitingTime="1244.00" timeLoss="1728.15" speed="2.21" speedRelative="0.16" departed="0" arrived="0" entered="67" left="67" laneChangedFrom="46" laneChangedTo="46"/>
        <edge id="E11" sampledSeconds="2146.71" traveltime="19.47" overlapTraveltime="20.89" density="67.00" laneDensity="16.75" occupancy="8.01" waitingTime="924.00" timeLoss="1630.52" speed="3.26" speedRelative="0.23" departed="0" arrived="0" entered="104" left="101" laneChangedFrom="99" laneChangedTo="99"/>
        <edge id="E12" sampledSeconds="1243.94" traveltime="18.69" overlapTraveltime="19.70" density="38.82" laneDensity="9.71" occupancy="4.69" waitingTime="638.00" timeLoss="926.37" speed="3.46" speedRelative="0.25" departed="0" arrived="0" entered="65" left="62" laneChangedFrom="58" laneChangedTo="58"/>
        <edge id="E13" sampledSeconds="422.42" traveltime="6.52" overlapTraveltime="6.91" density="10.21" laneDensity="2.55" occupancy="1.20" waitingTime="0.00" timeLoss="41.53" speed="12.54" speedRelative="0.90" departed="0" arrived="61" entered="62" left="0" laneChangedFrom="0" laneChangedTo="0"/>
        <edge id="E14" sampledSeconds="682.44" traveltime="6.71" overlapTraveltime="7.10" density="16.50" laneDensity="4.12" occupancy="1.94" waitingTime="0.00" timeLoss="75.67" speed="12.20" speedRelative="0.88" departed="0" arrived="97" entered="98" left="0" laneChangedFrom="1" laneChangedTo="1"/>
        <edge id="E15" sampledSeconds="611.28" traveltime="6.86" overlapTraveltime="7.25" density="14.78" laneDensity="3.69" occupancy="1.73" waitingTime="0.00" timeLoss="91.46" speed="11.95" speedRelative="0.86" departed="0" arrived="84" entered="87" left="0" laneChangedFrom="1" laneChangedTo="1"/>
        <edge id="E16" sampledSeconds="572.68" traveltime="6.74" overlapTraveltime="7.12" density="13.84" laneDensity="3.46" occupancy="1.63" waitingTime="0.00" timeLoss="67.38" speed="12.15" speedRelative="0.88" departed="0" arrived="81" entered="82" left="0" laneChangedFrom="0" laneChangedTo="0"/>
        <edge id="E17" sampledSeconds="568.25" traveltime="6.34" overlapTraveltime="6.71" density="13.74" laneDensity="3.43" occupancy="1.63" waitingTime="0.00" timeLoss="50.57" speed="12.91" speedRelative="0.93" departed="0" arrived="85" entered="86" left="0" laneChangedFrom="2" laneChangedTo="2"/>
        <edge id="E18" sampledSeconds="2811.61" traveltime="28.40" overlapTraveltime="30.03" density="87.75" laneDensity="21.94" occupancy="10.66" waitingTime="1858.00" timeLoss="2333.41" speed="2.27" speedRelative="0.16" departed="0" arrived="0" entered="96" left="90" laneChangedFrom="48" laneChangedTo="48"/>
        <edge id="E19" sampledSeconds="3049.71" traveltime="32.07" overlapTraveltime="34.10" density="95.18" laneDensity="23.79" occupancy="11.43" waitingTime="1805.00" timeLoss="2585.98" speed="2.00" speedRelative="0.14" departed="0" arrived="0" entered="93" left="85" laneChangedFrom="94" laneChangedTo="94"/>
        <edge id="E2" sampledSeconds="1505.76" traveltime="19.95" overlapTraveltime="21.53" density="46.99" laneDensity="11.75" occupancy="5.65" waitingTime="892.00" timeLoss="1153.97" speed="3.17" speedRelative="0.23" departed="0" arrived="0" entered="70" left="70" laneChangedFrom="29" laneChangedTo="29"/>
        <edge id="E20" sampledSeconds="3873.39" traveltime="32.97" overlapTraveltime="34.71" density="120.88" laneDensity="30.22" occupancy="14.52" waitingTime="2190.00" timeLoss="3311.08" speed="1.96" speedRelative="0.14" departed="0" arrived="0" entered="116" left="108" laneChangedFrom="145" laneChangedTo="145"/>
        <edge id="E21" sampledSeconds="1924.86" traveltime="19.30" overlapTraveltime="20.11" density="60.07" laneDensity="15.02" occupancy="7.21" waitingTime="908.00" timeLoss="1441.90" speed="3.39" speedRelative="0.24" departed="0" arrived="0" entered="100" left="92" laneChangedFrom="117" laneChangedTo="117"/>
        <edge id="E22" sampledSeconds="759.55" traveltime="6.85" overlapTraveltime="7.25" density="18.36" laneDensity="4.59" occupancy="2.15" waitingTime="0.00" timeLoss="94.63" speed="11.95" speedRelative="0.86" departed="0" arrived="104" entered="108" left="0" laneChangedFrom="0" laneChangedTo="0"/>
        <edge id="E23" sampledSeconds="559.67" traveltime="6.53" overlapTraveltime="6.91" density="13.53" laneDensity="3.38" occupancy="1.59" waitingTime="0.00" timeLoss="66.92" speed="12.54" speedRelative="0.90" departed="0" arrived="81" entered="82" left="0" laneChangedFrom="1" laneChangedTo="1"/>
        <edge id="E3" sampledSeconds="656.79" traveltime="6.89" overlapTraveltime="7.27" density="15.88" laneDensity="3.97" occupancy="1.87" waitingTime="0.00" timeLoss="86.75" speed="11.90" speedRelative="0.86" departed="0" arrived="91" entered="91" left="0" laneChangedFrom="0" laneChangedTo="0"/>
        <edge id="E4" sampledSeconds="4586.18" traveltime="41.54" overlapTraveltime="43.05" density="143.13" laneDensity="35.78" occupancy="17.18" waitingTime="2862.00" timeLoss="4033.08" speed="1.58" speedRelative="0.11" departed="0" arrived="0" entered="110" left="101" laneChangedFrom="111" laneChangedTo="111"/>
        <edge id="E5" sampledSeconds="353.03" traveltime="6.52" overlapTraveltime="6.91" density="8.53" laneDensity="2.13" occupancy="1.01" waitingTime="0.00" timeLoss="33.34" speed="12.54" speedRelative="0.90" departed="0" arrived="51" entered="52" left="0" laneChangedFrom="0" laneChangedTo="0"/>
        <edge id="E6" sampledSeconds="631.35" traveltime="6.82" overlapTraveltime="7.21" density="15.26" laneDensity="3.82" occupancy="1.79" waitingTime="0.00" timeLoss="80.53" speed="12.01" speedRelative="0.86" departed="0" arrived="87" entered="91" left="0" laneChangedFrom="1" laneChangedTo="1"/>
        <edge id="E7" sampledSeconds="454.38" traveltime="6.53" overlapTraveltime="6.92" density="10.98" laneDensity="2.75" occupancy="1.30" waitingTime="0.00" timeLoss="39.23" speed="12.52" speedRelative="0.90" departed="0" arrived="65" entered="67" left="0" laneChangedFrom="1" laneChangedTo="1"/>
        <edge id="E8" sampledSeconds="5150.16" traveltime="67.48" overlapTraveltime="70.79" density="160.73" laneDensity="40.18" occupancy="19.47" waitingTime="3931.00" timeLoss="4790.83" speed="0.96" speedRelative="0.07" departed="0" arrived="0" entered="79" left="68" laneChangedFrom="77" laneChangedTo="77"/>
        <edge id="E9" sampledSeconds="444.13" traveltime="6.87" overlapTraveltime="7.26" density="10.74" laneDensity="2.68" occupancy="1.26" waitingTime="0.00" timeLoss="58.41" speed="11.93" speedRelative="0.86" departed="0" arrived="62" entered="62" left="0" laneChangedFrom="0" laneChangedTo="0"/>
    </interval>
    <interval begin="0.00" end="507.00" id="AllData">
        <edge id="-E0" sampledSeconds="2429.85" traveltime="34.28" overlapTraveltime="37.16" density="75.83" laneDensity="18.96" occupancy="9.10" waitingTime="1539.00" timeLoss="2096.99" speed="1.84" speedRelative="0.13" departed="0" arrived="0" entered="68" left="64" laneChangedFrom="76" laneChangedTo="76"/>
        <edge id="-E1" sampledSeconds="2403.62" traveltime="34.02" overlapTraveltime="35.36" density="75.01" laneDensity="18.75" occupancy="9.06" waitingTime="1609.00" timeLoss="2061.62" speed="1.93" speedRelative="0.14" departed="0" arrived="0" entered="69" left="67" laneChangedFrom="47" laneChangedTo="47"/>
        <edge id="-E10" sampledSeconds="5118.87" traveltime="69.78" overlapTraveltime="71.02" density="159.75" laneDensity="39.94" occupancy="19.63" waitingTime="3826.00" timeLoss="4748.30" speed="0.96" speedRelative="0.07" departed="0" arrived="0" entered="75" left="68" laneChangedFrom="64" laneChangedTo="64"/>
        <edge id="-E11" sampledSeconds="1984.82" traveltime="19.55" overlapTraveltime="21.79" density="61.94" laneDensity="15.49" occupancy="7.37" waitingTime="947.00" timeLoss="1516.22" speed="3.13" speedRelative="0.23" departed="0" arrived="0" entered="93" left="89" laneChangedFrom="81" laneChangedTo="81"/>
        <edge id="-E12" sampledSeconds="3907.76" traveltime="27.92" overlapTraveltime="29.21" density="121.96" laneDensity="30.49" occupancy="14.74" waitingTime="2294.00" timeLoss="3215.29" speed="2.34" speedRelative="0.17" departed="0" arrived="0" entered="137" left="127" laneChangedFrom="105" laneChangedTo="105"/>
        <edge id="-E13" sampledSeconds="9692.96" traveltime="60.98" overlapTraveltime="62.34" density="234.29" laneDensity="58.57" occupancy="29.03" waitingTime="6170.00" timeLoss="8693.80" speed="1.39" speedRelative="0.10" departed="177" arrived="0" entered="0" left="156" laneChangedFrom="208" laneChangedTo="208"/>
        <edge id="-E14" sampledSeconds="7478.67" traveltime="77.72" overlapTraveltime="78.66" density="180.77" laneDensity="45.19" occupancy="22.48" waitingTime="5350.00" timeLoss="6856.49" speed="1.10" speedRelative="0.08" departed="115" arrived="0" entered="0" left="94" laneChangedFrom="142" laneChangedTo="142"/>
        <edge id="-E15" sampledSeconds="11121.70" traveltime="172.76" overlapTraveltime="174.92" density="268.83" laneDensity="67.21" occupancy="33.50" waitingTime="9253.00" timeLoss="10717.24" speed="0.50" speedRelative="0.04" departed="84" arrived="0" entered="0" left="59" laneChangedFrom="96" laneChangedTo="96"/>
        <edge id="-E16" sampledSeconds="9300.98" traveltime="82.58" overlapTraveltime="84.16" density="224.82" laneDensity="56.20" occupancy="27.89" waitingTime="6691.00" timeLoss="8582.50" speed="1.03" speedRelative="0.07" departed="129" arrived="0" entered="0" left="112" laneChangedFrom="167" laneChangedTo="167"/>
        <edge id="-E17" sampledSeconds="11534.06" traveltime="95.23" overlapTraveltime="97.35" density="278.79" laneDensity="69.70" occupancy="34.59" waitingTime="8487.00" timeLoss="10763.23" speed="0.89" speedRelative="0.06" departed="138" arrived="0" entered="0" left="120" laneChangedFrom="168" laneChangedTo="168"/>
        <edge id="-E18" sampledSeconds="2235.91" traveltime="20.12" overlapTraveltime="21.36" density="69.78" laneDensity="17.44" occupancy="8.41" waitingTime="1119.00" timeLoss="1703.17" speed="3.19" speedRelative="0.23" departed="0" arrived="0" entered="105" left="104" laneChangedFrom="85" laneChangedTo="85"/>
        <edge id="-E19" sampledSeconds="2674.28" traveltime="21.58" overlapTraveltime="23.12" density="83.46" laneDensity="20.87" occupancy="10.03" waitingTime="1402.00" timeLoss="2091.85" speed="2.95" speedRelative="0.21" departed="0" arrived="0" entered="120" left="111" laneChangedFrom="91" laneChangedTo="91"/>
        <edge id="-E2" sampledSeconds="2459.71" traveltime="29.20" overlapTraveltime="32.86" density="76.76" laneDensity="19.19" occupancy="8.93" waitingTime="1574.00" timeLoss="2077.65" speed="2.08" speedRelative="0.15" departed="0" arrived="0" entered="75" left="74" laneChangedFrom="61" laneChangedTo="61"/>
        <edge id="-E20" sampledSeconds="2374.20" traveltime="27.45" overlapTraveltime="29.42" density="74.10" laneDensity="18.52" occupancy="8.91" waitingTime="1264.00" timeLoss="1971.01" speed="2.32" speedRelative="0.17" departed="0" arrived="0" entered="87" left="76" laneChangedFrom="130" laneChangedTo="130"/>
        <edge id="-E21" sampledSeconds="1783.42" traveltime="28.64" overlapTraveltime="30.54" density="55.66" laneDensity="13.91" occupancy="6.71" waitingTime="901.00" timeLoss="1492.44" speed="2.23" speedRelative="0.16" departed="0" arrived="0" entered="60" left="55" laneChangedFrom="132" laneChangedTo="132"/>
        <edge id="-E22" sampledSeconds="678.11" traveltime="40.45" overlapTraveltime="45.03" density="16.39" laneDensity="4.10" occupancy="1.97" waitingTime="385.00" timeLoss="563.97" speed="1.92" speedRelative="0.14" departed="16" arrived="0" entered="0" left="16" laneChangedFrom="30" laneChangedTo="30"/>
        <edge id="-E23" sampledSeconds="10322.93" traveltime="95.17" overlapTraveltime="97.23" density="249.52" laneDensity="62.38" occupancy="30.96" waitingTime="7162.00" timeLoss="9658.81" speed="0.89" speedRelative="0.06" departed="122" arrived="0" entered="0" left="106" laneChangedFrom="159" laneChangedTo="159"/>
        <edge id="-E3" sampledSeconds="11402.39" traveltime="79.24" overlapTraveltime="81.43" density="275.61" laneDensity="68.90" occupancy="34.21" waitingTime="7976.00" timeLoss="10516.37" speed="1.06" speedRelative="0.08" departed="159" arrived="0" entered="0" left="138" laneChangedFrom="187" laneChangedTo="187"/>
        <edge id="-E4" sampledSeconds="1966.73" traveltime="22.62" overlapTraveltime="23.87" density="61.38" laneDensity="15.34" occupancy="7.41" waitingTime="1052.00" timeLoss="1538.00" speed="2.86" speedRelative="0.21" departed="0" arrived="0" entered="83" left="80" laneChangedFrom="76" laneChangedTo="76"/>
        <edge id="-E5" sampledSeconds="10447.18" traveltime="106.27" overlapTraveltime="107.86" density="252.52" laneDensity="63.13" occupancy="31.42" waitingTime="7697.00" timeLoss="9826.51" speed="0.80" speedRelative="0.06" departed="115" arrived="0" entered="0" left="94" laneChangedFrom="146" laneChangedTo="146"/>
        <edge id="-E6" sampledSeconds="8600.82" traveltime="94.84" overlapTraveltime="96.93" density="207.89" laneDensity="51.97" occupancy="25.80" waitingTime="6269.00" timeLoss="8031.22" speed="0.89" speedRelative="0.06" departed="107" arrived="0" entered="0" left="88" laneChangedFrom="136" laneChangedTo="136"/>
        <edge id="-E7" sampledSeconds="8940.37" traveltime="101.72" overlapTraveltime="103.54" density="216.10" laneDensity="54.03" occupancy="26.85" waitingTime="6803.00" timeLoss="8380.04" speed="0.84" speedRelative="0.06" departed="102" arrived="0" entered="0" left="85" laneChangedFrom="160" laneChangedTo="160"/>
        <edge id="-E8" sampledSeconds="1580.77" traveltime="21.20" overlapTraveltime="23.61" density="49.33" laneDensity="12.33" occupancy="5.88" waitingTime="932.00" timeLoss="1240.24" speed="2.89" speedRelative="0.21" departed="0" arrived="0" entered="68" left="65" laneChangedFrom="41" laneChangedTo="41"/>
        <edge id="-E9" sampledSeconds="10343.04" traveltime="122.07" overlapTraveltime="124.18" density="250.01" laneDensity="62.50" occupancy="31.11" waitingTime="8124.00" timeLoss="9817.25" speed="0.70" speedRelative="0.05" departed="104" arrived="0" entered="0" left="77" laneChangedFrom="125" laneChangedTo="125"/>
        <edge id="E0" sampledSeconds="1190.56" traveltime="20.23" overlapTraveltime="21.23" density="37.16" laneDensity="9.29" occupancy="4.48" waitingTime="665.00" timeLoss="899.20" speed="3.21" speedRelative="0.23" departed="0" arrived="0" entered="57" left="55" laneChangedFrom="21" laneChangedTo="21"/>
        <edge id="E1" sampledSeconds="3025.43" traveltime="23.30" overlapTraveltime="25.00" density="94.42" laneDensity="23.60" occupancy="11.40" waitingTime="1681.00" timeLoss="2409.46" speed="2.73" speedRelative="0.20" departed="0" arrived="0" entered="122" left="117" laneChangedFrom="79" laneChangedTo="79"/>
        <edge id="E10" sampledSeconds="2066.47" traveltime="28.07" overlapTraveltime="30.84" density="64.49" laneDensity="16.12" occupancy="7.75" waitingTime="1244.00" timeLoss="1728.15" speed="2.21" speedRelative="0.16" departed="0" arrived="0" entered="67" left="67" laneChangedFrom="46" laneChangedTo="46"/>
        <edge id="E11" sampledSeconds="2161.01" traveltime="19.41" overlapTraveltime="20.83" density="67.44" laneDensity="16.86" occupancy="8.07" waitingTime="926.00" timeLoss="1641.48" speed="3.27" speedRelative="0.24" departed="0" arrived="0" entered="105" left="102" laneChangedFrom="101" laneChangedTo="101"/>
        <edge id="E12" sampledSeconds="1243.94" traveltime="18.69" overlapTraveltime="19.70" density="38.82" laneDensity="9.71" occupancy="4.69" waitingTime="638.00" timeLoss="926.37" speed="3.46" speedRelative="0.25" departed="0" arrived="0" entered="65" left="62" laneChangedFrom="58" laneChangedTo="58"/>
        <edge id="E13" sampledSeconds="422.42" traveltime="6.52" overlapTraveltime="6.91" density="10.21" laneDensity="2.55" occupancy="1.20" waitingTime="0.00" timeLoss="41.53" speed="12.54" speedRelative="0.90" departed="0" arrived="61" entered="62" left="0" laneChangedFrom="0" laneChangedTo="0"/>
        <edge id="E14" sampledSeconds="687.65" traveltime="6.70" overlapTraveltime="7.08" density="16.62" laneDensity="4.16" occupancy="1.96" waitingTime="0.00" timeLoss="76.84" speed="12.23" speedRelative="0.88" departed="0" arrived="98" entered="99" left="0" laneChangedFrom="1" laneChangedTo="1"/>
        <edge id="E15" sampledSeconds="611.28" traveltime="6.86" overlapTraveltime="7.25" density="14.78" laneDensity="3.69" occupancy="1.73" waitingTime="0.00" timeLoss="91.46" speed="11.95" speedRelative="0.86" departed="0" arrived="84" entered="87" left="0" laneChangedFrom="1" laneChangedTo="1"/>
        <edge id="E16" sampledSeconds="572.68" traveltime="6.74" overlapTraveltime="7.12" density="13.84" laneDensity="3.46" occupancy="1.63" waitingTime="0.00" timeLoss="67.38" speed="12.15" speedRelative="0.88" departed="0" arrived="81" entered="82" left="0" laneChangedFrom="0" laneChangedTo="0"/>
        <edge id="E17" sampledSeconds="568.25" traveltime="6.34" overlapTraveltime="6.71" density="13.74" laneDensity="3.43" occupancy="1.63" waitingTime="0.00" timeLoss="50.57" speed="12.91" speedRelative="0.93" departed="0" arrived="85" entered="86" left="0" laneChangedFrom="2" laneChangedTo="2"/>
        <edge id="E18" sampledSeconds="2811.61" traveltime="28.40" overlapTraveltime="30.03" density="87.75" laneDensity="21.94" occupancy="10.66" waitingTime="1858.00" timeLoss="2333.41" speed="2.27" speedRelative="0.16" departed="0" arrived="0" entered="96" left="90" laneChangedFrom="48" laneChangedTo="48"/>
        <edge id="E19" sampledSeconds="3049.71" traveltime="32.07" overlapTraveltime="34.10" density="95.18" laneDensity="23.79" occupancy="11.43" waitingTime="1805.00" timeLoss="2585.98" speed="2.00" speedRelative="0.14" departed="0" arrived="0" entered="93" left="85" laneChangedFrom="94" laneChangedTo="94"/>
        <edge id="E2" sampledSeconds="1505.76" traveltime="19.95" overlapTraveltime="21.53" density="46.99" laneDensity="11.75" occupancy="5.65" waitingTime="892.00" timeLoss="1153.97" speed="3.17" speedRelative="0.23" departed="0" arrived="0" entered="70" left="70" laneChangedFrom="29" laneChangedTo="29"/>
        <edge id="E20" sampledSeconds="3873.39" traveltime="32.97" overlapTraveltime="34.71" density="120.88" laneDensity="30.22" occupancy="14.52" waitingTime="2190.00" timeLoss="3311.08" speed="1.96" speedRelative="0.14" departed="0" arrived="0" entered="116" left="108" laneChangedFrom="145" laneChangedTo="145"/>
        <edge id="E21" sampledSeconds="1924.86" traveltime="19.30" overlapTraveltime="20.11" density="60.07" laneDensity="15.02" occupancy="7.21" waitingTime="908.00" timeLoss="1441.90" speed="3.39" speedRelative="0.24" departed="0" arrived="0" entered="100" left="92" laneChangedFrom="117" laneChangedTo="117"/>
        <edge id="E22" sampledSeconds="759.55" traveltime="6.85" overlapTraveltime="7.25" density="18.36" laneDensity="4.59" occupancy="2.15" waitingTime="0.00" timeLoss="94.63" speed="11.95" speedRelative="0.86" departed="0" arrived="104" entered="108" left="0" laneChangedFrom="0" laneChangedTo="0"/>