<?xml version="1.0" encoding="UTF-8"?>

<!-- generated on 2022-11-28 17:22:27 by Eclipse SUMO GUI Version 1.14.1
<configuration xmlns:xsi="http://www.w3.org/2001/XMLSchema-instance" xsi:noNamespaceSchemaLocation="http://sumo.dlr.de/xsd/sumoConfiguration.xsd">

    <input>
        <net-file value="C:\Users\connp\OneDrive\Documents\_Pitt\Traffic_Capstone\team-project\3x3Grid\network.net.xml"/>
        <route-files value="C:\Users\connp\OneDrive\Documents\_Pitt\Traffic_Capstone\team-project\3x3Grid\routes_EMS.rou.xml"/>
        <additional-files value="C:\Users\connp\OneDrive\Documents\_Pitt\Traffic_Capstone\team-project\3x3Grid\additionals_EMS.add.xml"/>
    </input>

    <time>
        <begin value="0"/>
        <end value="300"/>
    </time>

    <processing>
        <lateral-resolution value="1.8"/>
    </processing>

</configuration>
-->

<meandata xmlns:xsi="http://www.w3.org/2001/XMLSchema-instance" xsi:noNamespaceSchemaLocation="http://sumo.dlr.de/xsd/meandata_file.xsd">
    <interval begin="0.00" end="166.00" id="EMSData">
        <edge id="-E3" sampledSeconds="14.07" traveltime="14.06" overlapTraveltime="15.21" density="1.04" laneDensity="0.26" occupancy="0.16" waitingTime="0.00" timeLoss="10.16" speed="5.79" speedRelative="0.42" departed="1" arrived="0" entered="0" left="1" laneChangedFrom="0" laneChangedTo="0"/>
        <edge id="E1" sampledSeconds="25.49" traveltime="23.76" overlapTraveltime="25.49" density="2.43" laneDensity="0.61" occupancy="0.38" waitingTime="17.00" timeLoss="22.15" speed="2.73" speedRelative="0.20" departed="0" arrived="0" entered="1" left="1" laneChangedFrom="0" laneChangedTo="0"/>
    </interval>
    <interval begin="0.00" end="166.00" id="OtherData">
        <edge id="-E0" sampledSeconds="513.28" traveltime="12.77" overlapTraveltime="13.94" density="48.92" laneDensity="12.23" occupancy="5.80" waitingTime="155.00" timeLoss="325.09" speed="4.89" speedRelative="0.35" departed="0" arrived="0" entered="37" left="35" laneChangedFrom="36" laneChangedTo="36"/>
        <edge id="-E1" sampledSeconds="476.50" traveltime="20.99" overlapTraveltime="22.08" density="45.42" laneDensity="11.35" occupancy="5.51" waitingTime="291.00" timeLoss="363.60" speed="3.09" speedRelative="0.22" departed="0" arrived="0" entered="25" left="15" laneChangedFrom="18" laneChangedTo="18"/>
        <edge id="-E10" sampledSeconds="1082.16" traveltime="32.50" overlapTraveltime="33.76" density="103.15" laneDensity="25.79" occupancy="12.62" waitingTime="693.00" timeLoss="922.28" speed="2.02" speedRelative="0.15" departed="0" arrived="0" entered="38" left="24" laneChangedFrom="27" laneChangedTo="27"/>
        <edge id="-E11" sampledSeconds="521.90" traveltime="21.09" overlapTraveltime="22.96" density="49.75" laneDensity="12.44" occupancy="6.01" waitingTime="322.00" timeLoss="406.09" speed="2.97" speedRelative="0.21" departed="0" arrived="0" entered="25" left="17" laneChangedFrom="10" laneChangedTo="10"/>
        <edge id="-E12" sampledSeconds="825.33" traveltime="21.79" overlapTraveltime="23.04" density="78.67" laneDensity="19.67" occupancy="9.49" waitingTime="468.00" timeLoss="644.01" speed="2.96" speedRelative="0.21" departed="0" arrived="0" entered="36" left="34" laneChangedFrom="21" laneChangedTo="21"/>
        <edge id="-E13" sampledSeconds="1933.03" traveltime="34.37" overlapTraveltime="35.94" density="142.71" laneDensity="35.68" occupancy="17.60" waitingTime="998.00" timeLoss="1592.26" speed="2.41" speedRelative="0.17" departed="63" arrived="0" entered="0" left="45" laneChangedFrom="76" laneChangedTo="76"/>
        <edge id="-E14" sampledSeconds="1375.03" traveltime="37.57" overlapTraveltime="38.65" density="101.51" laneDensity="25.38" occupancy="12.60" waitingTime="804.00" timeLoss="1145.90" speed="2.24" speedRelative="0.16" departed="42" arrived="0" entered="0" left="28" laneChangedFrom="58" laneChangedTo="58"/>
        <edge id="-E15" sampledSeconds="2674.34" traveltime="53.50" overlapTraveltime="55.23" density="197.43" laneDensity="49.36" occupancy="24.50" waitingTime="1577.00" timeLoss="2365.39" speed="1.57" speedRelative="0.11" departed="62" arrived="0" entered="0" left="38" laneChangedFrom="77" laneChangedTo="77"/>
        <edge id="-E16" sampledSeconds="1603.34" traveltime="31.09" overlapTraveltime="32.56" density="118.37" laneDensity="29.59" occupancy="14.56" waitingTime="825.00" timeLoss="1290.62" speed="2.66" speedRelative="0.19" departed="56" arrived="0" entered="0" left="46" laneChangedFrom="65" laneChangedTo="65"/>
        <edge id="-E17" sampledSeconds="3060.43" traveltime="66.73" overlapTraveltime="68.18" density="225.94" laneDensity="56.48" occupancy="28.06" waitingTime="2044.00" timeLoss="2767.80" speed="1.27" speedRelative="0.09" departed="61" arrived="0" entered="0" left="41" laneChangedFrom="71" laneChangedTo="71"/>
        <edge id="-E18" sampledSeconds="512.13" traveltime="14.10" overlapTraveltime="15.28" density="48.81" laneDensity="12.20" occupancy="5.83" waitingTime="201.00" timeLoss="342.97" speed="4.46" speedRelative="0.32" departed="0" arrived="0" entered="34" left="32" laneChangedFrom="25" laneChangedTo="25"/>
        <edge id="-E19" sampledSeconds="737.31" traveltime="16.32" overlapTraveltime="17.41" density="70.28" laneDensity="17.57" occupancy="8.42" waitingTime="315.00" timeLoss="520.50" speed="3.92" speedRelative="0.28" departed="0" arrived="0" entered="43" left="41" laneChangedFrom="25" laneChangedTo="25"/>
        <edge id="-E2" sampledSeconds="760.54" traveltime="26.47" overlapTraveltime="28.17" density="72.49" laneDensity="18.12" occupancy="8.75" waitingTime="442.00" timeLoss="622.81" speed="2.42" speedRelative="0.17" departed="0" arrived="0" entered="27" left="27" laneChangedFrom="23" laneChangedTo="23"/>
        <edge id="-E20" sampledSeconds="243.87" traveltime="12.14" overlapTraveltime="12.84" density="23.25" laneDensity="5.81" occupancy="2.78" waitingTime="77.00" timeLoss="147.66" speed="5.31" speedRelative="0.38" departed="0" arrived="0" entered="19" left="19" laneChangedFrom="20" laneChangedTo="20"/>
        <edge id="-E21" sampledSeconds="408.29" traveltime="28.94" overlapTraveltime="31.41" density="38.92" laneDensity="9.73" occupancy="4.68" waitingTime="223.00" timeLoss="343.76" speed="2.17" speedRelative="0.16" departed="0" arrived="0" entered="13" left="13" laneChangedFrom="23" laneChangedTo="23"/>
        <edge id="-E22" sampledSeconds="215.00" traveltime="41.28" overlapTraveltime="45.69" density="15.87" laneDensity="3.97" occupancy="1.91" waitingTime="127.00" timeLoss="177.69" speed="1.90" speedRelative="0.14" departed="5" arrived="0" entered="0" left="5" laneChangedFrom="5" laneChangedTo="5"/>
        <edge id="-E23" sampledSeconds="2922.50" traveltime="73.66" overlapTraveltime="76.20" density="215.75" laneDensity="53.94" occupancy="26.72" waitingTime="1917.00" timeLoss="2680.27" speed="1.14" speedRelative="0.08" departed="53" arrived="0" entered="0" left="35" laneChangedFrom="62" laneChangedTo="62"/>
        <edge id="-E3" sampledSeconds="2442.39" traveltime="41.78" overlapTraveltime="42.72" density="180.31" laneDensity="45.08" occupancy="22.40" waitingTime="1360.00" timeLoss="2077.70" speed="2.03" speedRelative="0.15" departed="65" arrived="0" entered="0" left="49" laneChangedFrom="81" laneChangedTo="81"/>
        <edge id="-E4" sampledSeconds="451.92" traveltime="16.77" overlapTraveltime="18.65" density="43.08" laneDensity="10.77" occupancy="5.13" waitingTime="250.00" timeLoss="329.24" speed="3.66" speedRelative="0.26" departed="0" arrived="0" entered="25" left="20" laneChangedFrom="10" laneChangedTo="10"/>
        <edge id="-E5" sampledSeconds="2942.29" traveltime="53.36" overlapTraveltime="55.34" density="217.21" laneDensity="54.30" occupancy="26.94" waitingTime="1856.00" timeLoss="2609.89" speed="1.56" speedRelative="0.11" departed="71" arrived="0" entered="0" left="40" laneChangedFrom="69" laneChangedTo="69"/>
        <edge id="-E6" sampledSeconds="2117.64" traveltime="103.01" overlapTraveltime="107.89" density="156.33" laneDensity="39.08" occupancy="19.33" waitingTime="1634.00" timeLoss="1993.66" speed="0.80" speedRelative="0.06" departed="31" arrived="0" entered="0" left="16" laneChangedFrom="40" laneChangedTo="40"/>
        <edge id="-E7" sampledSeconds="2359.58" traveltime="51.26" overlapTraveltime="52.40" density="174.20" laneDensity="43.55" occupancy="21.59" waitingTime="1410.00" timeLoss="2064.47" speed="1.65" speedRelative="0.12" departed="58" arrived="0" entered="0" left="44" laneChangedFrom="75" laneChangedTo="75"/>
        <edge id="-E8" sampledSeconds="382.34" traveltime="14.04" overlapTraveltime="15.46" density="36.44" laneDensity="9.11" occupancy="4.35" waitingTime="183.00" timeLoss="259.96" speed="4.41" speedRelative="0.32" departed="0" arrived="0" entered="25" left="22" laneChangedFrom="11" laneChangedTo="11"/>
        <edge id="-E9" sampledSeconds="1705.05" traveltime="33.67" overlapTraveltime="35.31" density="125.87" laneDensity="31.47" occupancy="15.53" waitingTime="888.00" timeLoss="1407.09" speed="2.45" speedRelative="0.18" departed="56" arrived="0" entered="0" left="38" laneChangedFrom="78" laneChangedTo="78"/>
        <edge id="E0" sampledSeconds="386.01" traveltime="13.42" overlapTraveltime="14.30" density="36.79" laneDensity="9.20" occupancy="4.38" waitingTime="164.00" timeLoss="244.48" speed="4.77" speedRelative="0.34" departed="0" arrived="0" entered="27" left="27" laneChangedFrom="9" laneChangedTo="9"/>
        <edge id="E1" sampledSeconds="1006.64" traveltime="21.36" overlapTraveltime="22.77" density="95.95" laneDensity="23.99" occupancy="11.63" waitingTime="584.00" timeLoss="782.82" speed="3.00" speedRelative="0.22" departed="0" arrived="0" entered="46" left="37" laneChangedFrom="25" laneChangedTo="25"/>
        <edge id="E10" sampledSeconds="504.92" traveltime="24.91" overlapTraveltime="27.53" density="48.13" laneDensity="12.03" occupancy="5.80" waitingTime="329.00" timeLoss="411.24" speed="2.48" speedRelative="0.18" departed="0" arrived="0" entered="19" left="16" laneChangedFrom="7" laneChangedTo="7"/>
        <edge id="E11" sampledSeconds="250.23" traveltime="9.20" overlapTraveltime="9.88" density="23.85" laneDensity="5.96" occupancy="2.82" waitingTime="80.00" timeLoss="124.31" speed="6.90" speedRelative="0.50" departed="0" arrived="0" entered="27" left="22" laneChangedFrom="6" laneChangedTo="6"/>
        <edge id="E12" sampledSeconds="412.48" traveltime="12.53" overlapTraveltime="13.66" density="39.32" laneDensity="9.83" occupancy="4.68" waitingTime="174.00" timeLoss="262.00" speed="4.99" speedRelative="0.36" departed="0" arrived="0" entered="34" left="25" laneChangedFrom="19" laneChangedTo="19"/>
        <edge id="E13" sampledSeconds="155.29" traveltime="6.44" overlapTraveltime="6.82" density="11.46" laneDensity="2.87" occupancy="1.35" waitingTime="0.00" timeLoss="14.30" speed="12.70" speedRelative="0.91" departed="0" arrived="22" entered="24" left="0" laneChangedFrom="0" laneChangedTo="0"/>
        <edge id="E14" sampledSeconds="224.83" traveltime="6.88" overlapTraveltime="7.27" density="16.60" laneDensity="4.15" occupancy="1.95" waitingTime="0.00" timeLoss="27.67" speed="11.91" speedRelative="0.86" departed="0" arrived="31" entered="33" left="0" laneChangedFrom="0" laneChangedTo="0"/>
        <edge id="E15" sampledSeconds="145.78" traveltime="6.63" overlapTraveltime="7.00" density="10.76" laneDensity="2.69" occupancy="1.26" waitingTime="0.00" timeLoss="22.16" speed="12.37" speedRelative="0.89" departed="0" arrived="20" entered="21" left="0" laneChangedFrom="0" laneChangedTo="0"/>
        <edge id="E16" sampledSeconds="182.70" traveltime="6.73" overlapTraveltime="7.11" density="13.49" laneDensity="3.37" occupancy="1.58" waitingTime="0.00" timeLoss="22.06" speed="12.18" speedRelative="0.88" departed="0" arrived="26" entered="27" left="0" laneChangedFrom="0" laneChangedTo="0"/>
        <edge id="E17" sampledSeconds="167.91" traveltime="6.45" overlapTraveltime="6.82" density="12.40" laneDensity="3.10" occupancy="1.46" waitingTime="0.00" timeLoss="16.52" speed="12.69" speedRelative="0.91" departed="0" arrived="25" entered="25" left="0" laneChangedFrom="0" laneChangedTo="0"/>
        <edge id="E18" sampledSeconds="950.93" traveltime="24.99" overlapTraveltime="26.48" density="90.64" laneDensity="22.66" occupancy="10.96" waitingTime="564.00" timeLoss="771.80" speed="2.58" speedRelative="0.19" departed="0" arrived="0" entered="36" left="35" laneChangedFrom="30" laneChangedTo="30"/>
        <edge id="E19" sampledSeconds="369.89" traveltime="10.27" overlapTraveltime="11.93" density="35.26" laneDensity="8.81" occupancy="4.11" waitingTime="123.00" timeLoss="215.37" speed="5.72" speedRelative="0.41" departed="0" arrived="0" entered="31" left="31" laneChangedFrom="13" laneChangedTo="13"/>
        <edge id="E2" sampledSeconds="583.00" traveltime="17.10" overlapTraveltime="18.22" density="55.57" laneDensity="13.89" occupancy="6.68" waitingTime="324.00" timeLoss="419.29" speed="3.74" speedRelative="0.27" departed="0" arrived="0" entered="32" left="32" laneChangedFrom="12" laneChangedTo="12"/>
        <edge id="E20" sampledSeconds="658.62" traveltime="15.02" overlapTraveltime="16.26" density="62.78" laneDensity="15.69" occupancy="7.49" waitingTime="272.00" timeLoss="457.13" speed="4.19" speedRelative="0.30" departed="0" arrived="0" entered="41" left="39" laneChangedFrom="27" laneChangedTo="27"/>
        <edge id="E21" sampledSeconds="449.04" traveltime="12.93" overlapTraveltime="13.61" density="42.80" laneDensity="10.70" occupancy="5.09" waitingTime="157.00" timeLoss="286.19" speed="5.01" speedRelative="0.36" departed="0" arrived="0" entered="33" left="33" laneChangedFrom="25" laneChangedTo="25"/>
        <edge id="E22" sampledSeconds="209.75" traveltime="6.77" overlapTraveltime="7.16" density="15.48" laneDensity="3.87" occupancy="1.82" waitingTime="0.00" timeLoss="25.88" speed="12.10" speedRelative="0.87" departed="0" arrived="29" entered="31" left="0" laneChangedFrom="0" laneChangedTo="0"/>
        <edge id="E23" sampledSeconds="186.90" traveltime="6.39" overlapTraveltime="6.75" density="13.80" laneDensity="3.45" occupancy="1.62" waitingTime="0.00" timeLoss="21.23" speed="12.83" speedRelative="0.92" departed="0" arrived="26" entered="29" left="0" laneChangedFrom="0" laneChangedTo="0"/>
        <edge id="E3" sampledSeconds="138.45" traveltime="6.82" overlapTraveltime="7.22" density="10.22" laneDensity="2.56" occupancy="1.20" waitingTime="0.00" timeLoss="15.32" speed="12.00" speedRelative="0.86" departed="0" arrived="19" entered="21" left="0" laneChangedFrom="0" laneChangedTo="0"/>
        <edge id="E4" sampledSeconds="595.71" traveltime="18.22" overlapTraveltime="19.69" density="56.78" laneDensity="14.20" occupancy="6.84" waitingTime="311.00" timeLoss="448.73" speed="3.46" speedRelative="0.25" departed="0" arrived="0" entered="31" left="25" laneChangedFrom="23" laneChangedTo="23"/>
        <edge id="E5" sampledSeconds="86.68" traveltime="6.39" overlapTraveltime="6.77" density="6.40" laneDensity="1.60" occupancy="0.76" waitingTime="0.00" timeLoss="6.55" speed="12.80" speedRelative="0.92" departed="0" arrived="13" entered="13" left="0" laneChangedFrom="0" laneChangedTo="0"/>
        <edge id="E6" sampledSeconds="238.53" traveltime="6.63" overlapTraveltime="7.01" density="17.61" laneDensity="4.40" occupancy="2.08" waitingTime="0.00" timeLoss="25.71" speed="12.35" speedRelative="0.89" departed="0" arrived="34" entered="35" left="0" laneChangedFrom="0" laneChangedTo="0"/>
        <edge id="E7" sampledSeconds="129.47" traveltime="6.41" overlapTraveltime="6.79" density="9.56" laneDensity="2.39" occupancy="1.13" waitingTime="0.00" timeLoss="10.28" speed="12.76" speedRelative="0.92" departed="0" arrived="19" entered="21" left="0" laneChangedFrom="0" laneChangedTo="0"/>
        <edge id="E8" sampledSeconds="791.29" traveltime="17.98" overlapTraveltime="19.62" density="75.42" laneDensity="18.86" occupancy="9.03" waitingTime="388.00" timeLoss="594.11" speed="3.48" speedRelative="0.25" departed="0" arrived="0" entered="44" left="32" laneChangedFrom="39" laneChangedTo="39"/>
        <edge id="E9" sampledSeconds="176.53" traveltime="6.75" overlapTraveltime="7.14" density="13.03" laneDensity="3.26" occupancy="1.53" waitingTime="0.00" timeLoss="23.37" speed="12.13" speedRelative="0.87" departed="0" arrived="25" entered="26" left="0" laneChangedFrom="0" laneChangedTo="0"/>
    </interval>
    <interval begin="0.00" end="166.00" id="AllData">
        <edge id="-E0" sampledSeconds="513.28" traveltime="12.77" overlapTraveltime="13.94" density="48.92" laneDensity="12.23" occupancy="5.80" waitingTime="155.00" timeLoss="325.09" speed="4.89" speedRelative="0.35" departed="0" arrived="0" entered="37" left="35" laneChangedFrom="36" laneChangedTo="36"/>
        <edge id="-E1" sampledSeconds="476.50" traveltime="20.99" overlapTraveltime="22.08" density="45.42" laneDensity="11.35" occupancy="5.51" waitingTime="291.00" timeLoss="363.60" speed="3.09" speedRelative="0.22" departed="0" arrived="0" entered="25" left="15" laneChangedFrom="18" laneChangedTo="18"/>
        <edge id="-E10" sampledSeconds="1082.16" traveltime="32.50" overlapTraveltime="33.76" density="103.15" laneDensity="25.79" occupancy="12.62" waitingTime="693.00" timeLoss="922.28" speed="2.02" speedRelative="0.15" departed="0" arrived="0" entered="38" left="24" laneChangedFrom="27" laneChangedTo="27"/>
        <edge id="-E11" sampledSeconds="521.90" traveltime="21.09" overlapTraveltime="22.96" density="49.75" laneDensity="12.44" occupancy="6.01" waitingTime="322.00" timeLoss="406.09" speed="2.97" speedRelative="0.21" departed="0" arrived="0" entered="25" left="17" laneChangedFrom="10" laneChangedTo="10"/>
        <edge id="-E12" sampledSeconds="825.33" traveltime="21.79" overlapTraveltime="23.04" density="78.67" laneDensity="19.67" occupancy="9.49" waitingTime="468.00" timeLoss="644.01" speed="2.96" speedRelative="0.21" departed="0" arrived="0" entered="36" left="34" laneChangedFrom="21" laneChangedTo="21"/>
        <edge id="-E13" sampledSeconds="1933.03" traveltime="34.37" overlapTraveltime="35.94" density="142.71" laneDensity="35.68" occupancy="17.60" waitingTime="998.00" timeLoss="1592.26" speed="2.41" speedRelative="0.17" departed="63" arrived="0" entered="0" left="45" laneChangedFrom="76" laneChangedTo="76"/>
        <edge id="-E14" sampledSeconds="1375.03" traveltime="37.57" overlapTraveltime="38.65" density="101.51" laneDensity="25.38" occupancy="12.60" waitingTime="804.00" timeLoss="1145.90" speed="2.24" speedRelative="0.16" departed="42" arrived="0" entered="0" left="28" laneChangedFrom="58" laneChangedTo="58"/>
        <edge id="-E15" sampledSeconds="2674.34" traveltime="53.50" overlapTraveltime="55.23" density="197.43" laneDensity="49.36" occupancy="24.50" waitingTime="1577.00" timeLoss="2365.39" speed="1.57" speedRelative="0.11" departed="62" arrived="0" entered="0" left="38" laneChangedFrom="77" laneChangedTo="77"/>
        <edge id="-E16" sampledSeconds="1603.34" traveltime="31.09" overlapTraveltime="32.56" density="118.37" laneDensity="29.59" occupancy="14.56" waitingTime="825.00" timeLoss="1290.62" speed="2.66" speedRelative="0.19" departed="56" arrived="0" entered="0" left="46" laneChangedFrom="65" laneChangedTo="65"/>
        <edge id="-E17" sampledSeconds="3060.43" traveltime="66.73" overlapTraveltime="68.18" density="225.94" laneDensity="56.48" occupancy="28.06" waitingTime="2044.00" timeLoss="2767.80" speed="1.27" speedRelative="0.09" departed="61" arrived="0" entered="0" left="41" laneChangedFrom="71" laneChangedTo="71"/>
        <edge id="-E18" sampledSeconds="512.13" traveltime="14.10" overlapTraveltime="15.28" density="48.81" laneDensity="12.20" occupancy="5.83" waitingTime="201.00" timeLoss="342.97" speed="4.46" speedRelative="0.32" departed="0" arrived="0" entered="34" left="32" laneChangedFrom="25" laneChangedTo="25"/>
        <edge id="-E19" sampledSeconds="737.31" traveltime="16.32" overlapTraveltime="17.41" density="70.28" laneDensity="17.57" occupancy="8.42" waitingTime="315.00" timeLoss="520.50" speed="3.92" speedRelative="0.28" departed="0" arrived="0" entered="43" left="41" laneChangedFrom="25" laneChangedTo="25"/>
        <edge id="-E2" sampledSeconds="760.54" traveltime="26.47" overlapTraveltime="28.17" density="72.49" laneDensity="18.12" occupancy="8.75" waitingTime="442.00" timeLoss="622.81" speed="2.42" speedRelative="0.17" departed="0" arrived="0" entered="27" left="27" laneChangedFrom="23" laneChangedTo="23"/>
        <edge id="-E20" sampledSeconds="243.87" traveltime="12.14" overlapTraveltime="12.84" density="23.25" laneDensity="5.81" occupancy="2.78" waitingTime="77.00" timeLoss="147.66" speed="5.31" speedRelative="0.38" departed="0" arrived="0" entered="19" left="19" laneChangedFrom="20" laneChangedTo="20"/>
        <edge id="-E21" sampledSeconds="408.29" traveltime="28.94" overlapTraveltime="31.41" density="38.92" laneDensity="9.73" occupancy="4.68" waitingTime="223.00" timeLoss="343.76" speed="2.17" speedRelative="0.16" departed="0" arrived="0" entered="13" left="13" laneChangedFrom="23" laneChangedTo="23"/>
        <edge id="-E22" sampledSeconds="215.00" traveltime="41.28" overlapTraveltime="45.69" density="15.87" laneDensity="3.97" occupancy="1.91" waitingTime="127.00" timeLoss="177.69" speed="1.90" speedRelative="0.14" departed="5" arrived="0" entered="0" left="5" laneChangedFrom="5" laneChangedTo="5"/>
        <edge id="-E23" sampledSeconds="2922.50" traveltime="73.66" overlapTraveltime="76.20" density="215.75" laneDensity="53.94" occupancy="26.72" waitingTime="1917.00" timeLoss="2680.27" speed="1.14" speedRelative="0.08" departed="53" arrived="0" entered="0" left="35" laneChangedFrom="62" laneChangedTo="62"/>
        <edge id="-E3" sampledSeconds="2456.47" traveltime="41.35" overlapTraveltime="42.27" density="181.35" laneDensity="45.34" occupancy="22.56" waitingTime="1360.00" timeLoss="2087.86" speed="2.05" speedRelative="0.15" departed="66" arrived="0" entered="0" left="50" laneChangedFrom="81" laneChangedTo="81"/>
        <edge id="-E4" sampledSeconds="451.92" traveltime="16.77" overlapTraveltime="18.65" density="43.08" laneDensity="10.77" occupancy="5.13" waitingTime="250.00" timeLoss="329.24" speed="3.66" speedRelative="0.26" departed="0" arrived="0" entered="25" left="20" laneChangedFrom="10" laneChangedTo="10"/>
        <edge id="-E5" sampledSeconds="2942.29" traveltime="53.36" overlapTraveltime="55.34" density="217.21" laneDensity="54.30" occupancy="26.94" waitingTime="1856.00" timeLoss="2609.89" speed="1.56" speedRelative="0.11" departed="71" arrived="0" entered="0" left="40" laneChangedFrom="69" laneChangedTo="69"/>
        <edge id="-E6" sampledSeconds="2117.64" traveltime="103.01" overlapTraveltime="107.89" density="156.33" laneDensity="39.08" occupancy="19.33" waitingTime="1634.00" timeLoss="1993.66" speed="0.80" speedRelative="0.06" departed="31" arrived="0" entered="0" left="16" laneChangedFrom="40" laneChangedTo="40"/>
        <edge id="-E7" sampledSeconds="2359.58" traveltime="51.26" overlapTraveltime="52.40" density="174.20" laneDensity="43.55" occupancy="21.59" waitingTime="1410.00" timeLoss="2064.47" speed="1.65" speedRelative="0.12" departed="58" arrived="0" entered="0" left="44" laneChangedFrom="75" laneChangedTo="75"/>
        <edge id="-E8" sampledSeconds="382.34" traveltime="14.04" overlapTraveltime="15.46" density="36.44" laneDensity="9.11" occupancy="4.35" waitingTime="183.00" timeLoss="259.96" speed="4.41" speedRelative="0.32" departed="0" arrived="0" entered="25" left="22" laneChangedFrom="11" laneChangedTo="11"/>
        <edge id="-E9" sampledSeconds="1705.05" traveltime="33.67" overlapTraveltime="35.31" density="125.87" laneDensity="31.47" occupancy="15.53" waitingTime="888.00" timeLoss="1407.09" speed="2.45" speedRelative="0.18" departed="56" arrived="0" entered="0" left="38" laneChangedFrom="78" laneChangedTo="78"/>
        <edge id="E0" sampledSeconds="386.01" traveltime="13.42" overlapTraveltime="14.30" density="36.79" laneDensity="9.20" occupancy="4.38" waitingTime="164.00" timeLoss="244.48" speed="4.77" speedRelative="0.34" departed="0" arrived="0" entered="27" left="27" laneChangedFrom="9" laneChangedTo="9"/>
        <edge id="E1" sampledSeconds="1032.13" traveltime="21.41" overlapTraveltime="22.83" density="98.38" laneDensity="24.60" occupancy="12.01" waitingTime="601.00" timeLoss="804.97" speed="2.99" speedRelative="0.22" departed="0" arrived="0" entered="47" left="38" laneChangedFrom="25" laneChangedTo="25"/>
        <edge id="E10" sampledSeconds="504.92" traveltime="24.91" overlapTraveltime="27.53" density="48.13" laneDensity="12.03" occupancy="5.80" waitingTime="329.00" timeLoss="411.24" speed="2.48" speedRelative="0.18" departed="0" arrived="0" entered="19" left="16" laneChangedFrom="7" laneChangedTo="7"/>
        <edge id="E11" sampledSeconds="250.23" traveltime="9.20" overlapTraveltime="9.88" density="23.85" laneDensity="5.96" occupancy="2.82" waitingTime="80.00" timeLoss="124.31" speed="6.90" speedRelative="0.50" departed="0" arrived="0" entered="27" left="22" laneChangedFrom="6" laneChangedTo="6"/>
        <edge id="E12" sampledSeconds="412.48" traveltime="12.53" overlapTraveltime="13.66" density="39.32" laneDensity="9.83" occupancy="4.68" waitingTime="174.00" timeLoss="262.00" speed="4.99" speedRelative="0.36" departed="0" arrived="0" entered="34" left="25" laneChangedFrom="19" laneChangedTo="19"/>
        <edge id="E13" sampledSeconds="155.29" traveltime="6.44" overlapTraveltime="6.82" density="11.46" laneDensity="2.87" occupancy="1.35" waitingTime="0.00" timeLoss="14.30" speed="12.70" speedRelative="0.91" departed="0" arrived="22" entered="24" left="0" laneChangedFrom="0" laneChangedTo="0"/>
        <edge id="E14" sampledSeconds="224.83" traveltime="6.88" overlapTraveltime="7.27" density="16.60" laneDensity="4.15" occupancy="1.95" waitingTime="0.00" timeLoss="27.67" speed="11.91" speedRelative="0.86" departed="0" arrived="31" entered="33" left="0" laneChangedFrom="0" laneChangedTo="0"/>
        <edge id="E15" sampledSeconds="145.78" traveltime="6.63" overlapTraveltime="7.00" density="10.76" laneDensity="2.69" occupancy="1.26" waitingTime="0.00" timeLoss="22.16" speed="12.37" speedRelative="0.89" departed="0" arrived="20" entered="21" left="0" laneChangedFrom="0" laneChangedTo="0"/>
        <edge id="E16" sampledSeconds="182.70" traveltime="6.73" overlapTraveltime="7.11" density="13.49" laneDensity="3.37" occupancy="1.58" waitingTime="0.00" timeLoss="22.06" speed="12.18" speedRelative="0.88" departed="0" arrived="26" entered="27" left="0" laneChangedFrom="0" laneChangedTo="0"/>
        <edge id="E17" sampledSeconds="167.91" traveltime="6.45" overlapTraveltime="6.82" density="12.40" laneDensity="3.10" occupancy="1.46" waitingTime="0.00" timeLoss="16.52" speed="12.69" speedRelative="0.91" departed="0" arrived="25" entered="25" left="0" laneChangedFrom="0" laneChangedTo="0"/>
        <edge id="E18" sampledSeconds="950.93" traveltime="24.99" overlapTraveltime="26.48" density="90.64" laneDensity="22.66" occupancy="10.96" waitingTime="564.00" timeLoss="771.80" speed="2.58" speedRelative="0.19" departed="0" arrived="0" entered="36" left="35" laneChangedFrom="30" laneChangedTo="30"/>
        <edge id="E19" sampledSeconds="369.89" traveltime="10.27" overlapTraveltime="11.93" density="35.26" laneDensity="8.81" occupancy="4.11" waitingTime="123.00" timeLoss="215.37" speed="5.72" speedRelative="0.41" departed="0" arrived="0" entered="31" left="31" laneChangedFrom="13" laneChangedTo="13"/>
        <edge id="E2" sampledSeconds="583.00" traveltime="17.10" overlapTraveltime="18.22" density="55.57" laneDensity="13.89" occupancy="6.68" waitingTime="324.00" timeLoss="419.29" speed="3.74" speedRelative="0.27" departed="0" arrived="0" entered="32" left="32" laneChangedFrom="12" laneChangedTo="12"/>
        <edge id="E20" sampledSeconds="658.62" traveltime="15.02" overlapTraveltime="16.26" density="62.78" laneDensity="15.69" occupancy="7.49" waitingTime="272.00" timeLoss="457.13" speed="4.19" speedRelative="0.30" departed="0" arrived="0" entered="41" left="39" laneChangedFrom="27" laneChangedTo="27"/>
        <edge id="E21" sampledSeconds="449.04" traveltime="12.93" overlapTraveltime="13.61" density="42.80" laneDensity="10.70" occupancy="5.09" waitingTime="157.00" timeLoss="286.19" speed="5.01" speedRelative="0.36" departed="0" arrived="0" entered="33" left="33" laneChangedFrom="25" laneChangedTo="25"/>
        <edge id="E22" sampledSeconds="209.75" traveltime="6.77" overlapTraveltime="7.16" density="15.48" laneDensity="3.87" occupancy="1.82" waitingTime="0.00" timeLoss="25.88" speed="12.10" speedRelative="0.87" departed="0" arrived="29" entered="31" left="0" laneChangedFrom="0" laneChangedTo="0"/>
        <edge id="E23" sampledSeconds="186.90" traveltime="6.39" overlapTraveltime="6.75" density="13.80" laneDensity="3.45" occupancy="1.62" waitingTime="0.00" timeLoss="21.23" speed="12.83" speedRelative="0.92" departed="0" arrived="26" entered="29" left="0" laneChangedFrom="0" laneChangedTo="0"/>
        <edge id="E3" sampledSeconds="138.45" traveltime="6.82" overlapTraveltime="7.22" density="10.22" laneDensity="2.56" occupancy="1.20" waitingTime="0.00" timeLoss="15.32" speed="12.00" speedRelative="0.86" departed="0" arrived="19" entered="21" left="0" laneChangedFrom="0" laneChangedTo="0"/>
        <edge id="E4" sampledSeconds="595.71" traveltime="18.22" overlapTraveltime="19.69" density="56.78" laneDensity="14.20" occupancy="6.84" waitingTime="311.00" timeLoss="448.73" speed="3.46" speedRelative="0.25" departed="0" arrived="0" entered="31" left="25" laneChangedFrom="23" laneChangedTo="23"/>