<?xml version="1.0" encoding="UTF-8"?>

<!-- generated on 2022-11-28 14:05:36 by Eclipse SUMO GUI Version 1.14.1
<configuration xmlns:xsi="http://www.w3.org/2001/XMLSchema-instance" xsi:noNamespaceSchemaLocation="http://sumo.dlr.de/xsd/sumoConfiguration.xsd">

    <input>
        <net-file value="C:\Users\connp\OneDrive\Documents\_Pitt\Traffic_Capstone\team-project\3x3Grid\network.net.xml"/>
        <route-files value="C:\Users\connp\OneDrive\Documents\_Pitt\Traffic_Capstone\team-project\3x3Grid\routes_EMS.rou.xml"/>
        <additional-files value="C:\Users\connp\OneDrive\Documents\_Pitt\Traffic_Capstone\team-project\3x3Grid\additionals_EMS.add.xml"/>
    </input>

    <time>
        <begin value="0"/>
        <end value="300"/>
    </time>

    <processing>
        <lateral-resolution value="1.8"/>
    </processing>

</configuration>
-->

<meandata xmlns:xsi="http://www.w3.org/2001/XMLSchema-instance" xsi:noNamespaceSchemaLocation="http://sumo.dlr.de/xsd/meandata_file.xsd">
    <interval begin="0.00" end="188.00" id="EMSData">
        <edge id="-E3" sampledSeconds="14.07" traveltime="14.06" overlapTraveltime="15.21" density="0.92" laneDensity="0.23" occupancy="0.14" waitingTime="0.00" timeLoss="10.16" speed="5.79" speedRelative="0.42" departed="1" arrived="0" entered="0" left="1" laneChangedFrom="0" laneChangedTo="0"/>
        <edge id="E1" sampledSeconds="25.49" traveltime="23.76" overlapTraveltime="25.49" density="2.15" laneDensity="0.54" occupancy="0.33" waitingTime="17.00" timeLoss="22.15" speed="2.73" speedRelative="0.20" departed="0" arrived="0" entered="1" left="1" laneChangedFrom="0" laneChangedTo="0"/>
        <edge id="E11" sampledSeconds="17.69" traveltime="16.49" overlapTraveltime="17.69" density="1.49" laneDensity="0.37" occupancy="0.23" waitingTime="7.00" timeLoss="14.35" speed="3.94" speedRelative="0.28" departed="0" arrived="0" entered="1" left="1" laneChangedFrom="1" laneChangedTo="1"/>
    </interval>
    <interval begin="0.00" end="188.00" id="OtherData">
        <edge id="-E0" sampledSeconds="514.27" traveltime="12.76" overlapTraveltime="13.90" density="43.28" laneDensity="10.82" occupancy="5.13" waitingTime="155.00" timeLoss="325.15" speed="4.91" speedRelative="0.35" departed="0" arrived="0" entered="37" left="37" laneChangedFrom="36" laneChangedTo="36"/>
        <edge id="-E1" sampledSeconds="681.32" traveltime="26.23" overlapTraveltime="27.29" density="57.34" laneDensity="14.34" occupancy="6.98" waitingTime="443.00" timeLoss="550.88" speed="2.50" speedRelative="0.18" departed="0" arrived="0" entered="29" left="21" laneChangedFrom="18" laneChangedTo="18"/>
        <edge id="-E10" sampledSeconds="1376.14" traveltime="40.29" overlapTraveltime="41.48" density="115.82" laneDensity="28.96" occupancy="14.20" waitingTime="953.00" timeLoss="1210.31" speed="1.64" speedRelative="0.12" departed="0" arrived="0" entered="39" left="29" laneChangedFrom="28" laneChangedTo="28"/>
        <edge id="-E11" sampledSeconds="737.96" traveltime="24.01" overlapTraveltime="25.86" density="62.11" laneDensity="15.53" occupancy="7.52" waitingTime="448.00" timeLoss="592.47" speed="2.64" speedRelative="0.19" departed="0" arrived="0" entered="32" left="25" laneChangedFrom="21" laneChangedTo="21"/>
        <edge id="-E12" sampledSeconds="919.08" traveltime="20.29" overlapTraveltime="21.57" density="77.35" laneDensity="19.34" occupancy="9.30" waitingTime="501.00" timeLoss="701.62" speed="3.16" speedRelative="0.23" departed="0" arrived="0" entered="45" left="42" laneChangedFrom="27" laneChangedTo="27"/>
        <edge id="-E13" sampledSeconds="2296.51" traveltime="39.81" overlapTraveltime="41.31" density="149.70" laneDensity="37.42" occupancy="18.46" waitingTime="1301.00" timeLoss="1942.81" speed="2.10" speedRelative="0.15" departed="63" arrived="0" entered="0" left="53" laneChangedFrom="76" laneChangedTo="76"/>
        <edge id="-E14" sampledSeconds="1656.19" traveltime="43.01" overlapTraveltime="43.88" density="107.96" laneDensity="26.99" occupancy="13.39" waitingTime="1034.00" timeLoss="1412.12" speed="1.97" speedRelative="0.14" departed="42" arrived="0" entered="0" left="36" laneChangedFrom="58" laneChangedTo="58"/>
        <edge id="-E15" sampledSeconds="3196.66" traveltime="63.74" overlapTraveltime="65.62" density="208.38" laneDensity="52.09" occupancy="25.87" waitingTime="2083.00" timeLoss="2885.53" speed="1.32" speedRelative="0.10" departed="62" arrived="0" entered="0" left="40" laneChangedFrom="78" laneChangedTo="78"/>
        <edge id="-E16" sampledSeconds="1741.09" traveltime="32.38" overlapTraveltime="33.78" density="113.49" laneDensity="28.37" occupancy="13.96" waitingTime="883.00" timeLoss="1413.65" speed="2.56" speedRelative="0.18" departed="56" arrived="0" entered="0" left="51" laneChangedFrom="67" laneChangedTo="67"/>
        <edge id="-E17" sampledSeconds="3574.27" traveltime="69.96" overlapTraveltime="72.07" density="232.99" laneDensity="58.25" occupancy="28.92" waitingTime="2438.00" timeLoss="3250.84" speed="1.20" speedRelative="0.09" departed="68" arrived="0" entered="0" left="42" laneChangedFrom="80" laneChangedTo="80"/>
        <edge id="-E18" sampledSeconds="560.54" traveltime="14.67" overlapTraveltime="16.02" density="47.18" laneDensity="11.79" occupancy="5.61" waitingTime="227.00" timeLoss="383.64" speed="4.26" speedRelative="0.31" departed="0" arrived="0" entered="37" left="33" laneChangedFrom="26" laneChangedTo="26"/>
        <edge id="-E19" sampledSeconds="753.32" traveltime="16.00" overlapTraveltime="17.07" density="63.40" laneDensity="15.85" occupancy="7.58" waitingTime="315.00" timeLoss="527.67" speed="4.00" speedRelative="0.29" departed="0" arrived="0" entered="46" left="43" laneChangedFrom="27" laneChangedTo="27"/>
        <edge id="-E2" sampledSeconds="768.97" traveltime="25.59" overlapTraveltime="27.30" density="64.72" laneDensity="16.18" occupancy="7.81" waitingTime="442.00" timeLoss="625.15" speed="2.50" speedRelative="0.18" departed="0" arrived="0" entered="30" left="27" laneChangedFrom="23" laneChangedTo="23"/>
        <edge id="-E20" sampledSeconds="248.88" traveltime="12.20" overlapTraveltime="12.90" density="20.95" laneDensity="5.24" occupancy="2.50" waitingTime="79.00" timeLoss="151.05" speed="5.29" speedRelative="0.38" departed="0" arrived="0" entered="20" left="19" laneChangedFrom="22" laneChangedTo="22"/>
        <edge id="-E21" sampledSeconds="413.72" traveltime="28.55" overlapTraveltime="31.01" density="34.82" laneDensity="8.70" occupancy="4.18" waitingTime="224.00" timeLoss="347.57" speed="2.20" speedRelative="0.16" departed="0" arrived="0" entered="15" left="13" laneChangedFrom="24" laneChangedTo="24"/>
        <edge id="-E22" sampledSeconds="215.00" traveltime="41.28" overlapTraveltime="45.69" density="14.02" laneDensity="3.50" occupancy="1.68" waitingTime="127.00" timeLoss="177.69" speed="1.90" speedRelative="0.14" departed="5" arrived="0" entered="0" left="5" laneChangedFrom="5" laneChangedTo="5"/>
        <edge id="-E23" sampledSeconds="3279.91" traveltime="75.54" overlapTraveltime="77.88" density="213.80" laneDensity="53.45" occupancy="26.49" waitingTime="2142.00" timeLoss="3014.69" speed="1.11" speedRelative="0.08" departed="55" arrived="0" entered="0" left="39" laneChangedFrom="66" laneChangedTo="66"/>
        <edge id="-E3" sampledSeconds="2778.39" traveltime="47.16" overlapTraveltime="48.08" density="181.11" laneDensity="45.28" occupancy="22.50" waitingTime="1670.00" timeLoss="2409.45" speed="1.80" speedRelative="0.13" departed="65" arrived="0" entered="0" left="53" laneChangedFrom="84" laneChangedTo="84"/>
        <edge id="-E4" sampledSeconds="545.22" traveltime="19.09" overlapTraveltime="20.92" density="45.89" laneDensity="11.47" occupancy="5.48" waitingTime="323.00" timeLoss="412.13" speed="3.26" speedRelative="0.23" departed="0" arrived="0" entered="28" left="25" laneChangedFrom="10" laneChangedTo="10"/>
        <edge id="-E5" sampledSeconds="3593.19" traveltime="63.30" overlapTraveltime="65.14" density="234.22" laneDensity="58.56" occupancy="29.05" waitingTime="2427.00" timeLoss="3247.20" speed="1.33" speedRelative="0.10" departed="71" arrived="0" entered="0" left="48" laneChangedFrom="70" laneChangedTo="70"/>
        <edge id="-E6" sampledSeconds="2388.11" traveltime="87.25" overlapTraveltime="91.23" density="155.67" laneDensity="38.92" occupancy="19.26" waitingTime="1762.00" timeLoss="2221.88" speed="0.95" speedRelative="0.07" departed="35" arrived="0" entered="0" left="21" laneChangedFrom="50" laneChangedTo="50"/>
        <edge id="-E7" sampledSeconds="2736.27" traveltime="51.97" overlapTraveltime="53.32" density="178.37" laneDensity="44.59" occupancy="22.13" waitingTime="1585.00" timeLoss="2402.29" speed="1.62" speedRelative="0.12" departed="63" arrived="0" entered="0" left="44" laneChangedFrom="92" laneChangedTo="92"/>
        <edge id="-E8" sampledSeconds="435.06" traveltime="15.40" overlapTraveltime="16.85" density="36.62" laneDensity="9.15" occupancy="4.37" waitingTime="225.00" timeLoss="306.92" speed="4.05" speedRelative="0.29" departed="0" arrived="0" entered="28" left="25" laneChangedFrom="11" laneChangedTo="11"/>
        <edge id="-E9" sampledSeconds="2065.62" traveltime="39.16" overlapTraveltime="40.75" density="134.65" laneDensity="33.66" occupancy="16.61" waitingTime="1175.00" timeLoss="1750.92" speed="2.13" speedRelative="0.15" departed="56" arrived="0" entered="0" left="48" laneChangedFrom="78" laneChangedTo="78"/>
        <edge id="E0" sampledSeconds="386.01" traveltime="13.42" overlapTraveltime="14.30" density="32.49" laneDensity="8.12" occupancy="3.87" waitingTime="164.00" timeLoss="244.48" speed="4.77" speedRelative="0.34" departed="0" arrived="0" entered="27" left="27" laneChangedFrom="9" laneChangedTo="9"/>
        <edge id="E1" sampledSeconds="1186.53" traveltime="24.42" overlapTraveltime="25.93" density="99.86" laneDensity="24.97" occupancy="12.11" waitingTime="732.00" timeLoss="954.08" speed="2.63" speedRelative="0.19" departed="0" arrived="0" entered="47" left="43" laneChangedFrom="25" laneChangedTo="25"/>
        <edge id="E10" sampledSeconds="604.56" traveltime="24.07" overlapTraveltime="26.51" density="50.88" laneDensity="12.72" occupancy="6.13" waitingTime="377.00" timeLoss="488.92" speed="2.57" speedRelative="0.19" departed="0" arrived="0" entered="24" left="21" laneChangedFrom="10" laneChangedTo="10"/>
        <edge id="E11" sampledSeconds="423.24" traveltime="12.62" overlapTraveltime="13.46" density="35.62" laneDensity="8.91" occupancy="4.27" waitingTime="174.00" timeLoss="268.98" speed="5.07" speedRelative="0.36" departed="0" arrived="0" entered="34" left="28" laneChangedFrom="16" laneChangedTo="16"/>
        <edge id="E12" sampledSeconds="605.32" traveltime="17.74" overlapTraveltime="18.91" density="50.95" laneDensity="12.74" occupancy="6.14" waitingTime="338.00" timeLoss="444.41" speed="3.61" speedRelative="0.26" departed="0" arrived="0" entered="37" left="28" laneChangedFrom="21" laneChangedTo="21"/>
        <edge id="E13" sampledSeconds="168.46" traveltime="6.42" overlapTraveltime="6.80" density="10.98" laneDensity="2.75" occupancy="1.29" waitingTime="0.00" timeLoss="14.88" speed="12.74" speedRelative="0.92" departed="0" arrived="25" entered="25" left="0" laneChangedFrom="0" laneChangedTo="0"/>
        <edge id="E14" sampledSeconds="254.21" traveltime="6.83" overlapTraveltime="7.22" density="16.57" laneDensity="4.14" occupancy="1.95" waitingTime="0.00" timeLoss="29.63" speed="12.00" speedRelative="0.86" departed="0" arrived="35" entered="38" left="0" laneChangedFrom="0" laneChangedTo="0"/>
        <edge id="E15" sampledSeconds="149.79" traveltime="6.63" overlapTraveltime="6.99" density="9.76" laneDensity="2.44" occupancy="1.14" waitingTime="0.00" timeLoss="22.42" speed="12.38" speedRelative="0.89" departed="0" arrived="21" entered="23" left="0" laneChangedFrom="0" laneChangedTo="0"/>
        <edge id="E16" sampledSeconds="202.88" traveltime="6.78" overlapTraveltime="7.17" density="13.22" laneDensity="3.31" occupancy="1.56" waitingTime="0.00" timeLoss="25.10" speed="12.07" speedRelative="0.87" departed="0" arrived="28" entered="29" left="0" laneChangedFrom="0" laneChangedTo="0"/>
        <edge id="E17" sampledSeconds="180.87" traveltime="6.43" overlapTraveltime="6.81" density="11.79" laneDensity="2.95" occupancy="1.39" waitingTime="0.00" timeLoss="17.03" speed="12.71" speedRelative="0.92" departed="0" arrived="27" entered="27" left="0" laneChangedFrom="0" laneChangedTo="0"/>
        <edge id="E18" sampledSeconds="988.56" traveltime="24.65" overlapTraveltime="26.14" density="83.20" laneDensity="20.80" occupancy="10.07" waitingTime="586.00" timeLoss="799.71" speed="2.61" speedRelative="0.19" departed="0" arrived="0" entered="38" left="36" laneChangedFrom="31" laneChangedTo="31"/>
        <edge id="E19" sampledSeconds="374.67" traveltime="10.32" overlapTraveltime="11.97" density="31.53" laneDensity="7.88" occupancy="3.67" waitingTime="124.00" timeLoss="218.86" speed="5.70" speedRelative="0.41" departed="0" arrived="0" entered="33" left="31" laneChangedFrom="14" laneChangedTo="14"/>
        <edge id="E2" sampledSeconds="606.41" traveltime="16.78" overlapTraveltime="17.88" density="51.04" laneDensity="12.76" occupancy="6.14" waitingTime="335.00" timeLoss="432.58" speed="3.81" speedRelative="0.27" departed="0" arrived="0" entered="34" left="33" laneChangedFrom="12" laneChangedTo="12"/>
        <edge id="E20" sampledSeconds="693.63" traveltime="14.71" overlapTraveltime="15.91" density="58.38" laneDensity="14.59" occupancy="6.96" waitingTime="282.00" timeLoss="478.26" speed="4.29" speedRelative="0.31" departed="0" arrived="0" entered="44" left="42" laneChangedFrom="31" laneChangedTo="31"/>
        <edge id="E21" sampledSeconds="457.23" traveltime="12.98" overlapTraveltime="13.66" density="38.48" laneDensity="9.62" occupancy="4.57" waitingTime="159.00" timeLoss="292.26" speed="4.99" speedRelative="0.36" departed="0" arrived="0" entered="35" left="33" laneChangedFrom="26" laneChangedTo="26"/>
        <edge id="E22" sampledSeconds="233.91" traveltime="6.82" overlapTraveltime="7.20" density="15.25" laneDensity="3.81" occupancy="1.79" waitingTime="0.00" timeLoss="30.09" speed="12.02" speedRelative="0.87" departed="0" arrived="32" entered="34" left="0" laneChangedFrom="0" laneChangedTo="0"/>
        <edge id="E23" sampledSeconds="209.36" traveltime="6.44" overlapTraveltime="6.81" density="13.65" laneDensity="3.41" occupancy="1.60" waitingTime="0.00" timeLoss="24.10" speed="12.71" speedRelative="0.92" departed="0" arrived="30" entered="33" left="0" laneChangedFrom="0" laneChangedTo="0"/>
        <edge id="E3" sampledSeconds="155.61" traveltime="6.84" overlapTraveltime="7.24" density="10.14" laneDensity="2.54" occupancy="1.19" waitingTime="0.00" timeLoss="17.45" speed="11.97" speedRelative="0.86" departed="0" arrived="21" entered="24" left="0" laneChangedFrom="0" laneChangedTo="0"/>
        <edge id="E4" sampledSeconds="811.27" traveltime="20.88" overlapTraveltime="22.64" density="68.28" laneDensity="17.07" occupancy="8.23" waitingTime="419.00" timeLoss="636.91" speed="3.01" speedRelative="0.22" departed="0" arrived="0" entered="40" left="31" laneChangedFrom="34" laneChangedTo="34"/>
        <edge id="E5" sampledSeconds="97.53" traveltime="6.34" overlapTraveltime="6.72" density="6.36" laneDensity="1.59" occupancy="0.75" waitingTime="0.00" timeLoss="7.09" speed="12.89" speedRelative="0.93" departed="0" arrived="14" entered="16" left="0" laneChangedFrom="0" laneChangedTo="0"/>
        <edge id="E6" sampledSeconds="250.53" traveltime="6.67" overlapTraveltime="7.06" density="16.33" laneDensity="4.08" occupancy="1.92" waitingTime="0.00" timeLoss="28.77" speed="12.27" speedRelative="0.88" departed="0" arrived="35" entered="37" left="0" laneChangedFrom="0" laneChangedTo="0"/>
        <edge id="E7" sampledSeconds="153.56" traveltime="6.46" overlapTraveltime="6.85" density="10.01" laneDensity="2.50" occupancy="1.18" waitingTime="0.00" timeLoss="13.35" speed="12.65" speedRelative="0.91" departed="0" arrived="22" entered="24" left="0" laneChangedFrom="0" laneChangedTo="0"/>
        <edge id="E8" sampledSeconds="1049.41" traveltime="22.09" overlapTraveltime="23.79" density="88.32" laneDensity="22.08" occupancy="10.63" waitingTime="573.00" timeLoss="832.25" speed="2.87" speedRelative="0.21" departed="0" arrived="0" entered="49" left="40" laneChangedFrom="41" laneChangedTo="41"/>
        <edge id="E9" sampledSeconds="190.03" traveltime="6.69" overlapTraveltime="7.08" density="12.39" laneDensity="3.10" occupancy="1.46" waitingTime="0.00" timeLoss="24.68" speed="12.23" speedRelative="0.88" departed="0" arrived="27" entered="28" left="0" laneChangedFrom="0" laneChangedTo="0"/>
    </interval>
    <interval begin="0.00" end="188.00" id="AllData">
        <edge id="-E0" sampledSeconds="514.27" traveltime="12.76" overlapTraveltime="13.90" density="43.28" laneDensity="10.82" occupancy="5.13" waitingTime="155.00" timeLoss="325.15" speed="4.91" speedRelative="0.35" departed="0" arrived="0" entered="37" left="37" laneChangedFrom="36" laneChangedTo="36"/>
        <edge id="-E1" sampledSeconds="681.32" traveltime="26.23" overlapTraveltime="27.29" density="57.34" laneDensity="14.34" occupancy="6.98" waitingTime="443.00" timeLoss="550.88" speed="2.50" speedRelative="0.18" departed="0" arrived="0" entered="29" left="21" laneChangedFrom="18" laneChangedTo="18"/>
        <edge id="-E10" sampledSeconds="1376.14" traveltime="40.29" overlapTraveltime="41.48" density="115.82" laneDensity="28.96" occupancy="14.20" waitingTime="953.00" timeLoss="1210.31" speed="1.64" speedRelative="0.12" departed="0" arrived="0" entered="39" left="29" laneChangedFrom="28" laneChangedTo="28"/>
        <edge id="-E11" sampledSeconds="737.96" traveltime="24.01" overlapTraveltime="25.86" density="62.11" laneDensity="15.53" occupancy="7.52" waitingTime="448.00" timeLoss="592.47" speed="2.64" speedRelative="0.19" departed="0" arrived="0" entered="32" left="25" laneChangedFrom="21" laneChangedTo="21"/>
        <edge id="-E12" sampledSeconds="919.08" traveltime="20.29" overlapTraveltime="21.57" density="77.35" laneDensity="19.34" occupancy="9.30" waitingTime="501.00" timeLoss="701.62" speed="3.16" speedRelative="0.23" departed="0" arrived="0" entered="45" left="42" laneChangedFrom="27" laneChangedTo="27"/>
        <edge id="-E13" sampledSeconds="2296.51" traveltime="39.81" overlapTraveltime="41.31" density="149.70" laneDensity="37.42" occupancy="18.46" waitingTime="1301.00" timeLoss="1942.81" speed="2.10" speedRelative="0.15" departed="63" arrived="0" entered="0" left="53" laneChangedFrom="76" laneChangedTo="76"/>
        <edge id="-E14" sampledSeconds="1656.19" traveltime="43.01" overlapTraveltime="43.88" density="107.96" laneDensity="26.99" occupancy="13.39" waitingTime="1034.00" timeLoss="1412.12" speed="1.97" speedRelative="0.14" departed="42" arrived="0" entered="0" left="36" laneChangedFrom="58" laneChangedTo="58"/>
        <edge id="-E15" sampledSeconds="3196.66" traveltime="63.74" overlapTraveltime="65.62" density="208.38" laneDensity="52.09" occupancy="25.87" waitingTime="2083.00" timeLoss="2885.53" speed="1.32" speedRelative="0.10" departed="62" arrived="0" entered="0" left="40" laneChangedFrom="78" laneChangedTo="78"/>
        <edge id="-E16" sampledSeconds="1741.09" traveltime="32.38" overlapTraveltime="33.78" density="113.49" laneDensity="28.37" occupancy="13.96" waitingTime="883.00" timeLoss="1413.65" speed="2.56" speedRelative="0.18" departed="56" arrived="0" entered="0" left="51" laneChangedFrom="67" laneChangedTo="67"/>
        <edge id="-E17" sampledSeconds="3574.27" traveltime="69.96" overlapTraveltime="72.07" density="232.99" laneDensity="58.25" occupancy="28.92" waitingTime="2438.00" timeLoss="3250.84" speed="1.20" speedRelative="0.09" departed="68" arrived="0" entered="0" left="42" laneChangedFrom="80" laneChangedTo="80"/>
        <edge id="-E18" sampledSeconds="560.54" traveltime="14.67" overlapTraveltime="16.02" density="47.18" laneDensity="11.79" occupancy="5.61" waitingTime="227.00" timeLoss="383.64" speed="4.26" speedRelative="0.31" departed="0" arrived="0" entered="37" left="33" laneChangedFrom="26" laneChangedTo="26"/>
        <edge id="-E19" sampledSeconds="753.32" traveltime="16.00" overlapTraveltime="17.07" density="63.40" laneDensity="15.85" occupancy="7.58" waitingTime="315.00" timeLoss="527.67" speed="4.00" speedRelative="0.29" departed="0" arrived="0" entered="46" left="43" laneChangedFrom="27" laneChangedTo="27"/>
        <edge id="-E2" sampledSeconds="768.97" traveltime="25.59" overlapTraveltime="27.30" density="64.72" laneDensity="16.18" occupancy="7.81" waitingTime="442.00" timeLoss="625.15" speed="2.50" speedRelative="0.18" departed="0" arrived="0" entered="30" left="27" laneChangedFrom="23" laneChangedTo="23"/>
        <edge id="-E20" sampledSeconds="248.88" traveltime="12.20" overlapTraveltime="12.90" density="20.95" laneDensity="5.24" occupancy="2.50" waitingTime="79.00" timeLoss="151.05" speed="5.29" speedRelative="0.38" departed="0" arrived="0" entered="20" left="19" laneChangedFrom="22" laneChangedTo="22"/>
        <edge id="-E21" sampledSeconds="413.72" traveltime="28.55" overlapTraveltime="31.01" density="34.82" laneDensity="8.70" occupancy="4.18" waitingTime="224.00" timeLoss="347.57" speed="2.20" speedRelative="0.16" departed="0" arrived="0" entered="15" left="13" laneChangedFrom="24" laneChangedTo="24"/>
        <edge id="-E22" sampledSeconds="215.00" traveltime="41.28" overlapTraveltime="45.69" density="14.02" laneDensity="3.50" occupancy="1.68" waitingTime="127.00" timeLoss="177.69" speed="1.90" speedRelative="0.14" departed="5" arrived="0" entered="0" left="5" laneChangedFrom="5" laneChangedTo="5"/>
        <edge id="-E23" sampledSeconds="3279.91" traveltime="75.54" overlapTraveltime="77.88" density="213.80" laneDensity="53.45" occupancy="26.49" waitingTime="2142.00" timeLoss="3014.69" speed="1.11" speedRelative="0.08" departed="55" arrived="0" entered="0" left="39" laneChangedFrom="66" laneChangedTo="66"/>
        <edge id="-E3" sampledSeconds="2792.46" traveltime="46.64" overlapTraveltime="47.55" density="182.03" laneDensity="45.51" occupancy="22.65" waitingTime="1670.00" timeLoss="2419.61" speed="1.82" speedRelative="0.13" departed="66" arrived="0" entered="0" left="54" laneChangedFrom="84" laneChangedTo="84"/>
        <edge id="-E4" sampledSeconds="545.22" traveltime="19.09" overlapTraveltime="20.92" density="45.89" laneDensity="11.47" occupancy="5.48" waitingTime="323.00" timeLoss="412.13" speed="3.26" speedRelative="0.23" departed="0" arrived="0" entered="28" left="25" laneChangedFrom="10" laneChangedTo="10"/>
        <edge id="-E5" sampledSeconds="3593.19" traveltime="63.30" overlapTraveltime="65.14" density="234.22" laneDensity="58.56" occupancy="29.05" waitingTime="2427.00" timeLoss="3247.20" speed="1.33" speedRelative="0.10" departed="71" arrived="0" entered="0" left="48" laneChangedFrom="70" laneChangedTo="70"/>
        <edge id="-E6" sampledSeconds="2388.11" traveltime="87.25" overlapTraveltime="91.23" density="155.67" laneDensity="38.92" occupancy="19.26" waitingTime="1762.00" timeLoss="2221.88" speed="0.95" speedRelative="0.07" departed="35" arrived="0" entered="0" left="21" laneChangedFrom="50" laneChangedTo="50"/>
        <edge id="-E7" sampledSeconds="2736.27" traveltime="51.97" overlapTraveltime="53.32" density="178.37" laneDensity="44.59" occupancy="22.13" waitingTime="1585.00" timeLoss="2402.29" speed="1.62" speedRelative="0.12" departed="63" arrived="0" entered="0" left="44" laneChangedFrom="92" laneChangedTo="92"/>
        <edge id="-E8" sampledSeconds="435.06" traveltime="15.40" overlapTraveltime="16.85" density="36.62" laneDensity="9.15" occupancy="4.37" waitingTime="225.00" timeLoss="306.92" speed="4.05" speedRelative="0.29" departed="0" arrived="0" entered="28" left="25" laneChangedFrom="11" laneChangedTo="11"/>
        <edge id="-E9" sampledSeconds="2065.62" traveltime="39.16" overlapTraveltime="40.75" density="134.65" laneDensity="33.66" occupancy="16.61" waitingTime="1175.00" timeLoss="1750.92" speed="2.13" speedRelative="0.15" departed="56" arrived="0" entered="0" left="48" laneChangedFrom="78" laneChangedTo="78"/>
        <edge id="E0" sampledSeconds="386.01" traveltime="13.42" overlapTraveltime="14.30" density="32.49" laneDensity="8.12" occupancy="3.87" waitingTime="164.00" timeLoss="244.48" speed="4.77" speedRelative="0.34" departed="0" arrived="0" entered="27" left="27" laneChangedFrom="9" laneChangedTo="9"/>
        <edge id="E1" sampledSeconds="1212.03" traveltime="24.40" overlapTraveltime="25.92" density="102.01" laneDensity="25.50" occupancy="12.44" waitingTime="749.00" timeLoss="976.23" speed="2.63" speedRelative="0.19" departed="0" arrived="0" entered="48" left="44" laneChangedFrom="25" laneChangedTo="25"/>
        <edge id="E10" sampledSeconds="604.56" traveltime="24.07" overlapTraveltime="26.51" density="50.88" laneDensity="12.72" occupancy="6.13" waitingTime="377.00" timeLoss="488.92" speed="2.57" speedRelative="0.19" departed="0" arrived="0" entered="24" left="21" laneChangedFrom="10" laneChangedTo="10"/>
        <edge id="E11" sampledSeconds="440.93" traveltime="12.74" overlapTraveltime="13.59" density="37.11" laneDensity="9.28" occupancy="4.50" waitingTime="181.00" timeLoss="283.33" speed="5.02" speedRelative="0.36" departed="0" arrived="0" entered="35" left="29" laneChangedFrom="17" laneChangedTo="17"/>
        <edge id="E12" sampledSeconds="605.32" traveltime="17.74" overlapTraveltime="18.91" density="50.95" laneDensity="12.74" occupancy="6.14" waitingTime="338.00" timeLoss="444.41" speed="3.61" speedRelative="0.26" departed="0" arrived="0" entered="37" left="28" laneChangedFrom="21" laneChangedTo="21"/>
        <edge id="E13" sampledSeconds="168.46" traveltime="6.42" overlapTraveltime="6.80" density="10.98" laneDensity="2.75" occupancy="1.29" waitingTime="0.00" timeLoss="14.88" speed="12.74" speedRelative="0.92" departed="0" arrived="25" entered="25" left="0" laneChangedFrom="0" laneChangedTo="0"/>
        <edge id="E14" sampledSeconds="254.21" traveltime="6.83" overlapTraveltime="7.22" density="16.57" laneDensity="4.14" occupancy="1.95" waitingTime="0.00" timeLoss="29.63" speed="12.00" speedRelative="0.86" departed="0" arrived="35" entered="38" left="0" laneChangedFrom="0" laneChangedTo="0"/>
        <edge id="E15" sampledSeconds="149.79" traveltime="6.63" overlapTraveltime="6.99" density="9.76" laneDensity="2.44" occupancy="1.14" waitingTime="0.00" timeLoss="22.42" speed="12.38" speedRelative="0.89" departed="0" arrived="21" entered="23" left="0" laneChangedFrom="0" laneChangedTo="0"/>
        <edge id="E16" sampledSeconds="202.88" traveltime="6.78" overlapTraveltime="7.17" density="13.22" laneDensity="3.31" occupancy="1.56" waitingTime="0.00" timeLoss="25.10" speed="12.07" speedRelative="0.87" departed="0" arrived="28" entered="29" left="0" laneChangedFrom="0" laneChangedTo="0"/>
        <edge id="E17" sampledSeconds="180.87" traveltime="6.43" overlapTraveltime="6.81" density="11.79" laneDensity="2.95" occupancy="1.39" waitingTime="0.00" timeLoss="17.03" speed="12.71" speedRelative="0.92" departed="0" arrived="27" entered="27" left="0" laneChangedFrom="0" laneChangedTo="0"/>
        <edge id="E18" sampledSeconds="988.56" traveltime="24.65" overlapTraveltime="26.14" density="83.20" laneDensity="20.80" occupancy="10.07" waitingTime="586.00" timeLoss="799.71" speed="2.61" speedRelative="0.19" departed="0" arrived="0" entered="38" left="36" laneChangedFrom="31" laneChangedTo="31"/>
        <edge id="E19" sampledSeconds="374.67" traveltime="10.32" overlapTraveltime="11.97" density="31.53" laneDensity="7.88" occupancy="3.67" waitingTime="124.00" timeLoss="218.86" speed="5.70" speedRelative="0.41" departed="0" arrived="0" entered="33" left="31" laneChangedFrom="14" laneChangedTo="14"/>
        <edge id="E2" sampledSeconds="606.41" traveltime="16.78" overlapTraveltime="17.88" density="51.04" laneDensity="12.76" occupancy="6.14" waitingTime="335.00" timeLoss="432.58" speed="3.81" speedRelative="0.27" departed="0" arrived="0" entered="34" left="33" laneChangedFrom="12" laneChangedTo="12"/>
        <edge id="E20" sampledSeconds="693.63" traveltime="14.71" overlapTraveltime="15.91" density="58.38" laneDensity="14.59" occupancy="6.96" waitingTime="282.00" timeLoss="478.26" speed="4.29" speedRelative="0.31" departed="0" arrived="0" entered="44" left="42" laneChangedFrom="31" laneChangedTo="31"/>
        <edge id="E21" sampledSeconds="457.23" traveltime="12.98" overlapTraveltime="13.66" density="38.48" laneDensity="9.62" occupancy="4.57" waitingTime="159.00" timeLoss="292.26" speed="4.99" speedRelative="0.36" departed="0" arrived="0" entered="35" left="33" laneChangedFrom="26" laneChangedTo="26"/>
        <edge id="E22" sampledSeconds="233.91" traveltime="6.82" overlapTraveltime="7.20" density="15.25" laneDensity="3.81" occupancy="1.79" waitingTime="0.00" timeLoss="30.09" speed="12.02" speedRelative="0.87" departed="0" arrived="32" entered="34" left="0" laneChangedFrom="0" laneChangedTo="0"/>
        <edge id="E23" sampledSeconds="209.36" traveltime="6.44" overlapTraveltime="6.81" density="13.65" laneDensity="3.41" occupancy="1.60" waitingTime="0.00" timeLoss="24.10" speed="12.71" speedRelative="0.92" departed="0" arrived="30" entered="33" left="0" laneChangedFrom="0" laneChangedTo="0"/>
        <edge id="E3" sampledSeconds="155.61" traveltime="6.84" overlapTraveltime="7.24" density="10.14" laneDensity="2.54" occupancy="1.19" waitingTime="0.00" timeLoss="17.45" speed="11.97" speedRelative="0.86" departed="0" arrived="21" entered="24" left="0" laneChangedFrom="0" laneChangedTo="0"/>