<?xml version="1.0" encoding="UTF-8"?>

<!-- generated on 2022-11-26 18:27:37 by Eclipse SUMO GUI Version 1.14.1
<configuration xmlns:xsi="http://www.w3.org/2001/XMLSchema-instance" xsi:noNamespaceSchemaLocation="http://sumo.dlr.de/xsd/sumoConfiguration.xsd">

    <input>
        <net-file value="C:\Users\connp\OneDrive\Documents\_Pitt\Traffic_Capstone\team-project\3x3Grid\network.net.xml"/>
        <route-files value="C:\Users\connp\OneDrive\Documents\_Pitt\Traffic_Capstone\team-project\3x3Grid\routes_NOEMS.rou.xml"/>
        <additional-files value="C:\Users\connp\OneDrive\Documents\_Pitt\Traffic_Capstone\team-project\3x3Grid\additionals_NOEMS.add.xml"/>
    </input>

    <time>
        <begin value="0"/>
        <end value="1000"/>
    </time>

    <processing>
        <lateral-resolution value="1.8"/>
    </processing>

</configuration>
-->

<meandata xmlns:xsi="http://www.w3.org/2001/XMLSchema-instance" xsi:noNamespaceSchemaLocation="http://sumo.dlr.de/xsd/meandata_file.xsd">
    <interval begin="0.00" end="1000.00" id="OtherData">
        <edge id="-E0" sampledSeconds="7160.56" traveltime="45.75" overlapTraveltime="47.16" density="113.30" laneDensity="28.33" occupancy="13.89" waitingTime="5146.00" timeLoss="6378.78" speed="1.45" speedRelative="0.10" departed="0" arrived="0" entered="154" left="148" laneChangedFrom="188" laneChangedTo="188"/>
        <edge id="-E1" sampledSeconds="4750.36" traveltime="42.27" overlapTraveltime="44.12" density="75.16" laneDensity="18.79" occupancy="9.16" waitingTime="3373.00" timeLoss="4207.00" speed="1.55" speedRelative="0.11" departed="0" arrived="0" entered="108" left="106" laneChangedFrom="132" laneChangedTo="132"/>
        <edge id="-E10" sampledSeconds="9008.21" traveltime="60.73" overlapTraveltime="61.77" density="142.53" laneDensity="35.63" occupancy="17.40" waitingTime="6788.00" timeLoss="8256.41" speed="1.10" speedRelative="0.08" departed="0" arrived="0" entered="151" left="143" laneChangedFrom="138" laneChangedTo="138"/>
        <edge id="-E11" sampledSeconds="9819.26" traveltime="101.67" overlapTraveltime="105.58" density="155.37" laneDensity="38.84" occupancy="18.98" waitingTime="7940.00" timeLoss="9335.24" speed="0.65" speedRelative="0.05" departed="0" arrived="0" entered="93" left="93" laneChangedFrom="100" laneChangedTo="100"/>
        <edge id="-E12" sampledSeconds="10780.30" traveltime="37.83" overlapTraveltime="39.31" density="170.57" laneDensity="42.64" occupancy="20.76" waitingTime="6809.00" timeLoss="9372.53" speed="1.73" speedRelative="0.12" departed="0" arrived="0" entered="279" left="270" laneChangedFrom="232" laneChangedTo="232"/>
        <edge id="-E13" sampledSeconds="13303.33" traveltime="55.78" overlapTraveltime="57.26" density="163.03" laneDensity="40.76" occupancy="20.16" waitingTime="8854.00" timeLoss="11809.36" speed="1.51" speedRelative="0.11" departed="253" arrived="0" entered="0" left="241" laneChangedFrom="298" laneChangedTo="298"/>
        <edge id="-E14" sampledSeconds="18389.30" traveltime="156.89" overlapTraveltime="157.85" density="225.36" laneDensity="56.34" occupancy="28.07" waitingTime="15666.00" timeLoss="17626.22" speed="0.55" speedRelative="0.04" departed="132" arrived="0" entered="0" left="118" laneChangedFrom="208" laneChangedTo="208"/>
        <edge id="-E15" sampledSeconds="16459.34" traveltime="135.88" overlapTraveltime="137.54" density="201.71" laneDensity="50.43" occupancy="25.10" waitingTime="13343.00" timeLoss="15701.94" speed="0.63" speedRelative="0.05" departed="139" arrived="0" entered="0" left="120" laneChangedFrom="247" laneChangedTo="247" teleported="2"/>
        <edge id="-E16" sampledSeconds="16709.11" traveltime="89.37" overlapTraveltime="90.88" density="204.77" laneDensity="51.19" occupancy="25.42" waitingTime="12834.00" timeLoss="15511.45" speed="0.95" speedRelative="0.07" departed="206" arrived="0" entered="0" left="189" laneChangedFrom="313" laneChangedTo="313"/>
        <edge id="-E17" sampledSeconds="12888.83" traveltime="84.12" overlapTraveltime="86.08" density="157.95" laneDensity="39.49" occupancy="19.56" waitingTime="9686.00" timeLoss="11903.34" speed="1.01" speedRelative="0.07" departed="167" arrived="0" entered="0" left="152" laneChangedFrom="172" laneChangedTo="172"/>
        <edge id="-E18" sampledSeconds="3273.69" traveltime="19.11" overlapTraveltime="20.11" density="51.80" laneDensity="12.95" occupancy="6.23" waitingTime="1619.00" timeLoss="2431.36" speed="3.39" speedRelative="0.24" departed="0" arrived="0" entered="163" left="161" laneChangedFrom="122" laneChangedTo="122"/>
        <edge id="-E19" sampledSeconds="6698.48" traveltime="39.47" overlapTraveltime="40.72" density="105.99" laneDensity="26.50" occupancy="12.99" waitingTime="4801.00" timeLoss="5857.36" speed="1.67" speedRelative="0.12" departed="0" arrived="0" entered="167" left="159" laneChangedFrom="108" laneChangedTo="108"/>
        <edge id="-E2" sampledSeconds="7285.01" traveltime="39.08" overlapTraveltime="40.93" density="115.27" laneDensity="28.82" occupancy="13.89" waitingTime="4798.39" timeLoss="6381.78" speed="1.67" speedRelative="0.12" departed="0" arrived="0" entered="178" left="178" laneChangedFrom="194" laneChangedTo="194"/>
        <edge id="-E20" sampledSeconds="3852.42" traveltime="25.02" overlapTraveltime="26.42" density="60.96" laneDensity="15.24" occupancy="7.38" waitingTime="2293.00" timeLoss="3114.38" speed="2.58" speedRelative="0.19" departed="0" arrived="0" entered="157" left="138" laneChangedFrom="150" laneChangedTo="150"/>
        <edge id="-E21" sampledSeconds="4962.43" traveltime="37.14" overlapTraveltime="39.12" density="78.52" laneDensity="19.63" occupancy="9.51" waitingTime="2910.00" timeLoss="4333.21" speed="1.74" speedRelative="0.13" departed="0" arrived="0" entered="130" left="122" laneChangedFrom="268" laneChangedTo="268"/>
        <edge id="-E22" sampledSeconds="1279.52" traveltime="36.51" overlapTraveltime="40.80" density="15.68" laneDensity="3.92" occupancy="1.88" waitingTime="642.00" timeLoss="1045.00" speed="2.12" speedRelative="0.15" departed="34" arrived="0" entered="0" left="33" laneChangedFrom="100" laneChangedTo="100"/>
        <edge id="-E23" sampledSeconds="13390.00" traveltime="59.16" overlapTraveltime="60.51" density="164.09" laneDensity="41.02" occupancy="20.32" waitingTime="8344.00" timeLoss="11979.48" speed="1.43" speedRelative="0.10" departed="241" arrived="0" entered="0" left="226" laneChangedFrom="506" laneChangedTo="506"/>
        <edge id="-E3" sampledSeconds="14184.38" traveltime="58.30" overlapTraveltime="60.01" density="173.83" laneDensity="43.46" occupancy="21.47" waitingTime="9196.00" timeLoss="12684.88" speed="1.44" speedRelative="0.10" departed="258" arrived="0" entered="0" left="245" laneChangedFrom="406" laneChangedTo="406"/>
        <edge id="-E4" sampledSeconds="4370.11" traveltime="29.76" overlapTraveltime="31.51" density="69.15" laneDensity="17.29" occupancy="8.38" waitingTime="2748.00" timeLoss="3640.61" speed="2.16" speedRelative="0.16" departed="0" arrived="0" entered="142" left="136" laneChangedFrom="130" laneChangedTo="130"/>
        <edge id="-E5" sampledSeconds="10721.68" traveltime="53.07" overlapTraveltime="54.44" density="131.39" laneDensity="32.85" occupancy="16.23" waitingTime="6972.00" timeLoss="9441.09" speed="1.59" speedRelative="0.11" departed="215" arrived="0" entered="0" left="204" laneChangedFrom="214" laneChangedTo="214"/>
        <edge id="-E6" sampledSeconds="16649.43" traveltime="114.61" overlapTraveltime="117.00" density="204.04" laneDensity="51.01" occupancy="25.33" waitingTime="13071.00" timeLoss="15737.99" speed="0.74" speedRelative="0.05" departed="164" arrived="0" entered="0" left="141" laneChangedFrom="349" laneChangedTo="349"/>
        <edge id="-E7" sampledSeconds="13293.41" traveltime="99.04" overlapTraveltime="100.44" density="162.91" laneDensity="40.73" occupancy="20.22" waitingTime="10496.47" timeLoss="12429.30" speed="0.86" speedRelative="0.06" departed="147" arrived="0" entered="0" left="130" laneChangedFrom="143" laneChangedTo="143"/>
        <edge id="-E8" sampledSeconds="4458.34" traveltime="25.26" overlapTraveltime="27.31" density="70.54" laneDensity="17.64" occupancy="8.50" waitingTime="2631.00" timeLoss="3624.03" speed="2.50" speedRelative="0.18" departed="0" arrived="0" entered="165" left="160" laneChangedFrom="107" laneChangedTo="107"/>
        <edge id="-E9" sampledSeconds="19808.86" traveltime="139.59" overlapTraveltime="142.27" density="242.76" laneDensity="60.69" occupancy="30.15" waitingTime="15734.00" timeLoss="18930.24" speed="0.61" speedRelative="0.04" departed="160" arrived="0" entered="0" left="142" laneChangedFrom="318" laneChangedTo="318"/>
        <edge id="E0" sampledSeconds="5700.04" traveltime="41.55" overlapTraveltime="42.65" density="90.19" laneDensity="22.55" occupancy="11.05" waitingTime="4324.00" timeLoss="5011.62" speed="1.60" speedRelative="0.12" departed="0" arrived="0" entered="135" left="132" laneChangedFrom="57" laneChangedTo="57"/>
        <edge id="E1" sampledSeconds="9243.98" traveltime="36.66" overlapTraveltime="37.98" density="146.27" laneDensity="36.57" occupancy="17.74" waitingTime="5762.00" timeLoss="7983.15" speed="1.80" speedRelative="0.13" departed="0" arrived="0" entered="248" left="240" laneChangedFrom="223" laneChangedTo="223"/>
        <edge id="E10" sampledSeconds="7040.68" traveltime="53.27" overlapTraveltime="55.25" density="111.40" laneDensity="27.85" occupancy="13.56" waitingTime="5350.00" timeLoss="6395.31" speed="1.23" speedRelative="0.09" departed="0" arrived="0" entered="138" left="121" laneChangedFrom="103" laneChangedTo="103"/>
        <edge id="E11" sampledSeconds="4554.62" traveltime="28.88" overlapTraveltime="31.04" density="72.07" laneDensity="18.02" occupancy="8.71" waitingTime="2807.00" timeLoss="3825.07" speed="2.20" speedRelative="0.16" departed="0" arrived="0" entered="148" left="144" laneChangedFrom="110" laneChangedTo="110" teleported="1"/>
        <edge id="E12" sampledSeconds="4328.55" traveltime="24.23" overlapTraveltime="25.47" density="68.49" laneDensity="17.12" occupancy="8.28" waitingTime="2297.00" timeLoss="3445.75" speed="2.68" speedRelative="0.19" departed="0" arrived="0" entered="170" left="170" laneChangedFrom="212" laneChangedTo="212"/>
        <edge id="E13" sampledSeconds="914.05" traveltime="6.60" overlapTraveltime="6.98" density="11.20" laneDensity="2.80" occupancy="1.32" waitingTime="0.00" timeLoss="91.59" speed="12.40" speedRelative="0.89" departed="0" arrived="131" entered="134" left="0" laneChangedFrom="2" laneChangedTo="2"/>
        <edge id="E14" sampledSeconds="1129.43" traveltime="6.73" overlapTraveltime="7.12" density="13.84" laneDensity="3.46" occupancy="1.63" waitingTime="0.00" timeLoss="129.17" speed="12.16" speedRelative="0.88" departed="0" arrived="159" entered="162" left="0" laneChangedFrom="1" laneChangedTo="1"/>
        <edge id="E15" sampledSeconds="940.74" traveltime="6.82" overlapTraveltime="7.20" density="11.53" laneDensity="2.88" occupancy="1.35" waitingTime="0.00" timeLoss="136.14" speed="12.03" speedRelative="0.87" departed="0" arrived="132" entered="132" left="0" laneChangedFrom="0" laneChangedTo="0"/>
        <edge id="E16" sampledSeconds="1112.75" traveltime="6.71" overlapTraveltime="7.10" density="13.64" laneDensity="3.41" occupancy="1.60" waitingTime="0.00" timeLoss="126.46" speed="12.19" speedRelative="0.88" departed="0" arrived="157" entered="160" left="0" laneChangedFrom="0" laneChangedTo="0"/>
        <edge id="E17" sampledSeconds="920.37" traveltime="6.37" overlapTraveltime="6.75" density="11.28" laneDensity="2.82" occupancy="1.33" waitingTime="0.00" timeLoss="74.30" speed="12.83" speedRelative="0.92" departed="0" arrived="138" entered="138" left="0" laneChangedFrom="0" laneChangedTo="0"/>
        <edge id="E18" sampledSeconds="11899.63" traveltime="101.02" overlapTraveltime="103.23" density="188.29" laneDensity="47.07" occupancy="23.21" waitingTime="10119.00" timeLoss="11305.59" speed="0.66" speedRelative="0.05" departed="0" arrived="0" entered="128" left="106" laneChangedFrom="82" laneChangedTo="82"/>
        <edge id="E19" sampledSeconds="8053.31" traveltime="79.58" overlapTraveltime="82.28" density="127.43" laneDensity="31.86" occupancy="15.66" waitingTime="6331.00" timeLoss="7557.64" speed="0.83" speedRelative="0.06" departed="0" arrived="0" entered="108" left="91" laneChangedFrom="116" laneChangedTo="116"/>
        <edge id="E2" sampledSeconds="3274.36" traveltime="21.63" overlapTraveltime="23.27" density="51.81" laneDensity="12.95" occupancy="6.24" waitingTime="1909.00" timeLoss="2563.18" speed="2.93" speedRelative="0.21" departed="0" arrived="0" entered="141" left="139" laneChangedFrom="60" laneChangedTo="60"/>
        <edge id="E20" sampledSeconds="6866.44" traveltime="35.15" overlapTraveltime="36.55" density="108.65" laneDensity="27.16" occupancy="13.22" waitingTime="4432.00" timeLoss="5915.22" speed="1.87" speedRelative="0.13" departed="0" arrived="0" entered="188" left="186" laneChangedFrom="186" laneChangedTo="186"/>
        <edge id="E21" sampledSeconds="5183.03" traveltime="21.82" overlapTraveltime="22.78" density="82.01" laneDensity="20.50" occupancy="9.85" waitingTime="2397.00" timeLoss="4017.36" speed="2.99" speedRelative="0.22" departed="0" arrived="0" entered="229" left="227" laneChangedFrom="268" laneChangedTo="268"/>
        <edge id="E22" sampledSeconds="1435.91" traveltime="6.77" overlapTraveltime="7.16" density="17.60" laneDensity="4.40" occupancy="2.06" waitingTime="0.00" timeLoss="176.34" speed="12.09" speedRelative="0.87" departed="0" arrived="202" entered="204" left="0" laneChangedFrom="0" laneChangedTo="0"/>
        <edge id="E23" sampledSeconds="1028.66" traveltime="6.90" overlapTraveltime="7.28" density="12.61" laneDensity="3.15" occupancy="1.47" waitingTime="0.00" timeLoss="151.84" speed="11.90" speedRelative="0.86" departed="0" arrived="142" entered="144" left="0" laneChangedFrom="1" laneChangedTo="1"/>
        <edge id="E3" sampledSeconds="986.47" traveltime="6.74" overlapTraveltime="7.13" density="12.09" laneDensity="3.02" occupancy="1.42" waitingTime="0.00" timeLoss="112.66" speed="12.14" speedRelative="0.87" departed="0" arrived="139" entered="143" left="0" laneChangedFrom="2" laneChangedTo="2"/>
        <edge id="E4" sampledSeconds="10498.18" traveltime="59.56" overlapTraveltime="61.45" density="166.11" laneDensity="41.53" occupancy="20.26" waitingTime="7946.00" timeLoss="9625.20" speed="1.11" speedRelative="0.08" departed="0" arrived="0" entered="181" left="158" laneChangedFrom="128" laneChangedTo="128"/>
        <edge id="E5" sampledSeconds="711.22" traveltime="6.53" overlapTraveltime="6.91" density="8.72" laneDensity="2.18" occupancy="1.03" waitingTime="0.00" timeLoss="63.59" speed="12.53" speedRelative="0.90" departed="0" arrived="104" entered="104" left="0" laneChangedFrom="0" laneChangedTo="0"/>
        <edge id="E6" sampledSeconds="1098.94" traveltime="6.74" overlapTraveltime="7.13" density="13.47" laneDensity="3.37" occupancy="1.58" waitingTime="0.00" timeLoss="122.84" speed="12.14" speedRelative="0.87" departed="0" arrived="155" entered="157" left="0" laneChangedFrom="2" laneChangedTo="2"/>
        <edge id="E7" sampledSeconds="818.70" traveltime="6.47" overlapTraveltime="6.86" density="10.03" laneDensity="2.51" occupancy="1.19" waitingTime="0.00" timeLoss="62.44" speed="12.63" speedRelative="0.91" departed="0" arrived="120" entered="121" left="0" laneChangedFrom="2" laneChangedTo="2"/>
        <edge id="E8" sampledSeconds="8673.82" traveltime="57.41" overlapTraveltime="59.96" density="137.24" laneDensity="34.31" occupancy="16.74" waitingTime="6387.00" timeLoss="7952.67" speed="1.14" speedRelative="0.08" departed="0" arrived="0" entered="145" left="144" laneChangedFrom="129" laneChangedTo="129"/>
        <edge id="E9" sampledSeconds="964.94" traveltime="6.76" overlapTraveltime="7.15" density="11.83" laneDensity="2.96" occupancy="1.39" waitingTime="0.00" timeLoss="115.79" speed="12.11" speedRelative="0.87" departed="0" arrived="135" entered="139" left="0" laneChangedFrom="1" laneChangedTo="1"/>
    </interval>
    <interval begin="0.00" end="1000.00" id="AllData">
        <edge id="-E0" sampledSeconds="7160.56" traveltime="45.75" overlapTraveltime="47.16" density="113.30" laneDensity="28.33" occupancy="13.89" waitingTime="5146.00" timeLoss="6378.78" speed="1.45" speedRelative="0.10" departed="0" arrived="0" entered="154" left="148" laneChangedFrom="188" laneChangedTo="188"/>
        <edge id="-E1" sampledSeconds="4750.36" traveltime="42.27" overlapTraveltime="44.12" density="75.16" laneDensity="18.79" occupancy="9.16" waitingTime="3373.00" timeLoss="4207.00" speed="1.55" speedRelative="0.11" departed="0" arrived="0" entered="108" left="106" laneChangedFrom="132" laneChangedTo="132"/>
        <edge id="-E10" sampledSeconds="9008.21" traveltime="60.73" overlapTraveltime="61.77" density="142.53" laneDensity="35.63" occupancy="17.40" waitingTime="6788.00" timeLoss="8256.41" speed="1.10" speedRelative="0.08" departed="0" arrived="0" entered="151" left="143" laneChangedFrom="138" laneChangedTo="138"/>
        <edge id="-E11" sampledSeconds="9819.26" traveltime="101.67" overlapTraveltime="105.58" density="155.37" laneDensity="38.84" occupancy="18.98" waitingTime="7940.00" timeLoss="9335.24" speed="0.65" speedRelative="0.05" departed="0" arrived="0" entered="93" left="93" laneChangedFrom="100" laneChangedTo="100"/>
        <edge id="-E12" sampledSeconds="10780.30" traveltime="37.83" overlapTraveltime="39.31" density="170.57" laneDensity="42.64" occupancy="20.76" waitingTime="6809.00" timeLoss="9372.53" speed="1.73" speedRelative="0.12" departed="0" arrived="0" entered="279" left="270" laneChangedFrom="232" laneChangedTo="232"/>
        <edge id="-E13" sampledSeconds="13303.33" traveltime="55.78" overlapTraveltime="57.26" density="163.03" laneDensity="40.76" occupancy="20.16" waitingTime="8854.00" timeLoss="11809.36" speed="1.51" speedRelative="0.11" departed="253" arrived="0" entered="0" left="241" laneChangedFrom="298" laneChangedTo="298"/>
        <edge id="-E14" sampledSeconds="18389.30" traveltime="156.89" overlapTraveltime="157.85" density="225.36" laneDensity="56.34" occupancy="28.07" waitingTime="15666.00" timeLoss="17626.22" speed="0.55" speedRelative="0.04" departed="132" arrived="0" entered="0" left="118" laneChangedFrom="208" laneChangedTo="208"/>
        <edge id="-E15" sampledSeconds="16459.34" traveltime="135.88" overlapTraveltime="137.54" density="201.71" laneDensity="50.43" occupancy="25.10" waitingTime="13343.00" timeLoss="15701.94" speed="0.63" speedRelative="0.05" departed="139" arrived="0" entered="0" left="120" laneChangedFrom="247" laneChangedTo="247" teleported="2"/>
        <edge id="-E16" sampledSeconds="16709.11" traveltime="89.37" overlapTraveltime="90.88" density="204.77" laneDensity="51.19" occupancy="25.42" waitingTime="12834.00" timeLoss="15511.45" speed="0.95" speedRelative="0.07" departed="206" arrived="0" entered="0" left="189" laneChangedFrom="313" laneChangedTo="313"/>
        <edge id="-E17" sampledSeconds="12888.83" traveltime="84.12" overlapTraveltime="86.08" density="157.95" laneDensity="39.49" occupancy="19.56" waitingTime="9686.00" timeLoss="11903.34" speed="1.01" speedRelative="0.07" departed="167" arrived="0" entered="0" left="152" laneChangedFrom="172" laneChangedTo="172"/>
        <edge id="-E18" sampledSeconds="3273.69" traveltime="19.11" overlapTraveltime="20.11" density="51.80" laneDensity="12.95" occupancy="6.23" waitingTime="1619.00" timeLoss="2431.36" speed="3.39" speedRelative="0.24" departed="0" arrived="0" entered="163" left="161" laneChangedFrom="122" laneChangedTo="122"/>
        <edge id="-E19" sampledSeconds="6698.48" traveltime="39.47" overlapTraveltime="40.72" density="105.99" laneDensity="26.50" occupancy="12.99" waitingTime="4801.00" timeLoss="5857.36" speed="1.67" speedRelative="0.12" departed="0" arrived="0" entered="167" left="159" laneChangedFrom="108" laneChangedTo="108"/>
        <edge id="-E2" sampledSeconds="7285.01" traveltime="39.08" overlapTraveltime="40.93" density="115.27" laneDensity="28.82" occupancy="13.89" waitingTime="4798.39" timeLoss="6381.78" speed="1.67" speedRelative="0.12" departed="0" arrived="0" entered="178" left="178" laneChangedFrom="194" laneChangedTo="194"/>
        <edge id="-E20" sampledSeconds="3852.42" traveltime="25.02" overlapTraveltime="26.42" density="60.96" laneDensity="15.24" occupancy="7.38" waitingTime="2293.00" timeLoss="3114.38" speed="2.58" speedRelative="0.19" departed="0" arrived="0" entered="157" left="138" laneChangedFrom="150" laneChangedTo="150"/>
        <edge id="-E21" sampledSeconds="4962.43" traveltime="37.14" overlapTraveltime="39.12" density="78.52" laneDensity="19.63" occupancy="9.51" waitingTime="2910.00" timeLoss="4333.21" speed="1.74" speedRelative="0.13" departed="0" arrived="0" entered="130" left="122" laneChangedFrom="268" laneChangedTo="268"/>
        <edge id="-E22" sampledSeconds="1279.52" traveltime="36.51" overlapTraveltime="40.80" density="15.68" laneDensity="3.92" occupancy="1.88" waitingTime="642.00" timeLoss="1045.00" speed="2.12" speedRelative="0.15" departed="34" arrived="0" entered="0" left="33" laneChangedFrom="100" laneChangedTo="100"/>
        <edge id="-E23" sampledSeconds="13390.00" traveltime="59.16" overlapTraveltime="60.51" density="164.09" laneDensity="41.02" occupancy="20.32" waitingTime="8344.00" timeLoss="11979.48" speed="1.43" speedRelative="0.10" departed="241" arrived="0" entered="0" left="226" laneChangedFrom="506" laneChangedTo="506"/>
        <edge id="-E3" sampledSeconds="14184.38" traveltime="58.30" overlapTraveltime="60.01" density="173.83" laneDensity="43.46" occupancy="21.47" waitingTime="9196.00" timeLoss="12684.88" speed="1.44" speedRelative="0.10" departed="258" arrived="0" entered="0" left="245" laneChangedFrom="406" laneChangedTo="406"/>
        <edge id="-E4" sampledSeconds="4370.11" traveltime="29.76" overlapTraveltime="31.51" density="69.15" laneDensity="17.29" occupancy="8.38" waitingTime="2748.00" timeLoss="3640.61" speed="2.16" speedRelative="0.16" departed="0" arrived="0" entered="142" left="136" laneChangedFrom="130" laneChangedTo="130"/>
        <edge id="-E5" sampledSeconds="10721.68" traveltime="53.07" overlapTraveltime="54.44" density="131.39" laneDensity="32.85" occupancy="16.23" waitingTime="6972.00" timeLoss="9441.09" speed="1.59" speedRelative="0.11" departed="215" arrived="0" entered="0" left="204" laneChangedFrom="214" laneChangedTo="214"/>
        <edge id="-E6" sampledSeconds="16649.43" traveltime="114.61" overlapTraveltime="117.00" density="204.04" laneDensity="51.01" occupancy="25.33" waitingTime="13071.00" timeLoss="15737.99" speed="0.74" speedRelative="0.05" departed="164" arrived="0" entered="0" left="141" laneChangedFrom="349" laneChangedTo="349"/>
        <edge id="-E7" sampledSeconds="13293.41" traveltime="99.04" overlapTraveltime="100.44" density="162.91" laneDensity="40.73" occupancy="20.22" waitingTime="10496.47" timeLoss="12429.30" speed="0.86" speedRelative="0.06" departed="147" arrived="0" entered="0" left="130" laneChangedFrom="143" laneChangedTo="143"/>
        <edge id="-E8" sampledSeconds="4458.34" traveltime="25.26" overlapTraveltime="27.31" density="70.54" laneDensity="17.64" occupancy="8.50" waitingTime="2631.00" timeLoss="3624.03" speed="2.50" speedRelative="0.18" departed="0" arrived="0" entered="165" left="160" laneChangedFrom="107" laneChangedTo="107"/>
        <edge id="-E9" sampledSeconds="19808.86" traveltime="139.59" overlapTraveltime="142.27" density="242.76" laneDensity="60.69" occupancy="30.15" waitingTime="15734.00" timeLoss="18930.24" speed="0.61" speedRelative="0.04" departed="160" arrived="0" entered="0" left="142" laneChangedFrom="318" laneChangedTo="318"/>
        <edge id="E0" sampledSeconds="5700.04" traveltime="41.55" overlapTraveltime="42.65" density="90.19" laneDensity="22.55" occupancy="11.05" waitingTime="4324.00" timeLoss="5011.62" speed="1.60" speedRelative="0.12" departed="0" arrived="0" entered="135" left="132" laneChangedFrom="57" laneChangedTo="57"/>
        <edge id="E1" sampledSeconds="9243.98" traveltime="36.66" overlapTraveltime="37.98" density="146.27" laneDensity="36.57" occupancy="17.74" waitingTime="5762.00" timeLoss="7983.15" speed="1.80" speedRelative="0.13" departed="0" arrived="0" entered="248" left="240" laneChangedFrom="223" laneChangedTo="223"/>
        <edge id="E10" sampledSeconds="7040.68" traveltime="53.27" overlapTraveltime="55.25" density="111.40" laneDensity="27.85" occupancy="13.56" waitingTime="5350.00" timeLoss="6395.31" speed="1.23" speedRelative="0.09" departed="0" arrived="0" entered="138" left="121" laneChangedFrom="103" laneChangedTo="103"/>
        <edge id="E11" sampledSeconds="4554.62" traveltime="28.88" overlapTraveltime="31.04" density="72.07" laneDensity="18.02" occupancy="8.71" waitingTime="2807.00" timeLoss="3825.07" speed="2.20" speedRelative="0.16" departed="0" arrived="0" entered="148" left="144" laneChangedFrom="110" laneChangedTo="110" teleported="1"/>
        <edge id="E12" sampledSeconds="4328.55" traveltime="24.23" overlapTraveltime="25.47" density="68.49" laneDensity="17.12" occupancy="8.28" waitingTime="2297.00" timeLoss="3445.75" speed="2.68" speedRelative="0.19" departed="0" arrived="0" entered="170" left="170" laneChangedFrom="212" laneChangedTo="212"/>
        <edge id="E13" sampledSeconds="914.05" traveltime="6.60" overlapTraveltime="6.98" density="11.20" laneDensity="2.80" occupancy="1.32" waitingTime="0.00" timeLoss="91.59" speed="12.40" speedRelative="0.89" departed="0" arrived="131" entered="134" left="0" laneChangedFrom="2" laneChangedTo="2"/>
        <edge id="E14" sampledSeconds="1129.43" traveltime="6.73" overlapTraveltime="7.12" density="13.84" laneDensity="3.46" occupancy="1.63" waitingTime="0.00" timeLoss="129.17" speed="12.16" speedRelative="0.88" departed="0" arrived="159" entered="162" left="0" laneChangedFrom="1" laneChangedTo="1"/>
        <edge id="E15" sampledSeconds="940.74" traveltime="6.82" overlapTraveltime="7.20" density="11.53" laneDensity="2.88" occupancy="1.35" waitingTime="0.00" timeLoss="136.14" speed="12.03" speedRelative="0.87" departed="0" arrived="132" entered="132" left="0" laneChangedFrom="0" laneChangedTo="0"/>
        <edge id="E16" sampledSeconds="1112.75" traveltime="6.71" overlapTraveltime="7.10" density="13.64" laneDensity="3.41" occupancy="1.60" waitingTime="0.00" timeLoss="126.46" speed="12.19" speedRelative="0.88" departed="0" arrived="157" entered="160" left="0" laneChangedFrom="0" laneChangedTo="0"/>
        <edge id="E17" sampledSeconds="920.37" traveltime="6.37" overlapTraveltime="6.75" density="11.28" laneDensity="2.82" occupancy="1.33" waitingTime="0.00" timeLoss="74.30" speed="12.83" speedRelative="0.92" departed="0" arrived="138" entered="138" left="0" laneChangedFrom="0" laneChangedTo="0"/>
        <edge id="E18" sampledSeconds="11899.63" traveltime="101.02" overlapTraveltime="103.23" density="188.29" laneDensity="47.07" occupancy="23.21" waitingTime="10119.00" timeLoss="11305.59" speed="0.66" speedRelative="0.05" departed="0" arrived="0" entered="128" left="106" laneChangedFrom="82" laneChangedTo="82"/>
        <edge id="E19" sampledSeconds="8053.31" traveltime="79.58" overlapTraveltime="82.28" density="127.43" laneDensity="31.86" occupancy="15.66" waitingTime="6331.00" timeLoss="7557.64" speed="0.83" speedRelative="0.06" departed="0" arrived="0" entered="108" left="91" laneChangedFrom="116" laneChangedTo="116"/>
        <edge id="E2" sampledSeconds="3274.36" traveltime="21.63" overlapTraveltime="23.27" density="51.81" laneDensity="12.95" occupancy="6.24" waitingTime="1909.00" timeLoss="2563.18" speed="2.93" speedRelative="0.21" departed="0" arrived="0" entered="141" left="139" laneChangedFrom="60" laneChangedTo="60"/>
        <edge id="E20" sampledSeconds="6866.44" traveltime="35.15" overlapTraveltime="36.55" density="108.65" laneDensity="27.16" occupancy="13.22" waitingTime="4432.00" timeLoss="5915.22" speed="1.87" speedRelative="0.13" departed="0" arrived="0" entered="188" left="186" laneChangedFrom="186" laneChangedTo="186"/>
        <edge id="E21" sampledSeconds="5183.03" traveltime="21.82" overlapTraveltime="22.78" density="82.01" laneDensity="20.50" occupancy="9.85" waitingTime="2397.00" timeLoss="4017.36" speed="2.99" speedRelative="0.22" departed="0" arrived="0" entered="229" left="227" laneChangedFrom="268" laneChangedTo="268"/>
        <edge id="E22" sampledSeconds="1435.91" traveltime="6.77" overlapTraveltime="7.16" density="17.60" laneDensity="4.40" occupancy="2.06" waitingTime="0.00" timeLoss="176.34" speed="12.09" speedRelative="0.87" departed="0" arrived="202" entered="204" left="0" laneChangedFrom="0" laneChangedTo="0"/>
        <edge id="E23" sampledSeconds="1028.66" traveltime="6.90" overlapTraveltime="7.28" density="12.61" laneDensity="3.15" occupancy="1.47" waitingTime="0.00" timeLoss="151.84" speed="11.90" speedRelative="0.86" departed="0" arrived="142" entered="144" left="0" laneChangedFrom="1" laneChangedTo="1"/>
        <edge id="E3" sampledSeconds="986.47" traveltime="6.74" overlapTraveltime="7.13" density="12.09" laneDensity="3.02" occupancy="1.42" waitingTime="0.00" timeLoss="112.66" speed="12.14" speedRelative="0.87" departed="0" arrived="139" entered="143" left="0" laneChangedFrom="2" laneChangedTo="2"/>
        <edge id="E4" sampledSeconds="10498.18" traveltime="59.56" overlapTraveltime="61.45" density="166.11" laneDensity="41.53" occupancy="20.26" waitingTime="7946.00" timeLoss="9625.20" speed="1.11" speedRelative="0.08" departed="0" arrived="0" entered="181" left="158" laneChangedFrom="128" laneChangedTo="128"/>