<?xml version="1.0" encoding="UTF-8"?>

<!-- generated on 2022-11-26 18:23:46 by Eclipse SUMO GUI Version 1.14.1
<configuration xmlns:xsi="http://www.w3.org/2001/XMLSchema-instance" xsi:noNamespaceSchemaLocation="http://sumo.dlr.de/xsd/sumoConfiguration.xsd">

    <input>
        <net-file value="C:\Users\connp\OneDrive\Documents\_Pitt\Traffic_Capstone\team-project\3x3Grid\network.net.xml"/>
        <route-files value="C:\Users\connp\OneDrive\Documents\_Pitt\Traffic_Capstone\team-project\3x3Grid\routes_EMS.rou.xml"/>
        <additional-files value="C:\Users\connp\OneDrive\Documents\_Pitt\Traffic_Capstone\team-project\3x3Grid\additionals_EMS.add.xml"/>
    </input>

    <time>
        <begin value="0"/>
        <end value="1000"/>
    </time>

    <processing>
        <lateral-resolution value="1.8"/>
    </processing>

</configuration>
-->

<meandata xmlns:xsi="http://www.w3.org/2001/XMLSchema-instance" xsi:noNamespaceSchemaLocation="http://sumo.dlr.de/xsd/meandata_file.xsd">
    <interval begin="0.00" end="197.00" id="EMSData">
        <edge id="-E3" sampledSeconds="59.14" traveltime="39.69" overlapTraveltime="41.29" density="3.68" laneDensity="0.92" occupancy="0.58" waitingTime="30.00" timeLoss="53.09" speed="2.13" speedRelative="0.15" departed="1" arrived="0" entered="0" left="1" laneChangedFrom="2" laneChangedTo="2"/>
        <edge id="E1" sampledSeconds="6.53" traveltime="5.99" overlapTraveltime="6.53" density="0.52" laneDensity="0.13" occupancy="0.08" waitingTime="0.00" timeLoss="3.19" speed="10.67" speedRelative="0.77" departed="0" arrived="0" entered="1" left="1" laneChangedFrom="1" laneChangedTo="1"/>
        <edge id="E11" sampledSeconds="9.02" traveltime="10.23" overlapTraveltime="11.29" density="0.72" laneDensity="0.18" occupancy="0.11" waitingTime="0.00" timeLoss="6.35" speed="6.18" speedRelative="0.44" departed="0" arrived="0" entered="1" left="0" laneChangedFrom="1" laneChangedTo="1"/>
    </interval>
    <interval begin="0.00" end="197.00" id="OtherData">
        <edge id="-E0" sampledSeconds="1046.01" traveltime="26.81" overlapTraveltime="30.15" density="84.01" laneDensity="21.00" occupancy="9.90" waitingTime="592.00" timeLoss="869.33" speed="2.26" speedRelative="0.16" departed="0" arrived="0" entered="37" left="27" laneChangedFrom="38" laneChangedTo="38"/>
        <edge id="-E1" sampledSeconds="766.88" traveltime="24.72" overlapTraveltime="26.19" density="61.59" laneDensity="15.40" occupancy="7.42" waitingTime="458.00" timeLoss="614.71" speed="2.60" speedRelative="0.19" departed="0" arrived="0" entered="32" left="23" laneChangedFrom="21" laneChangedTo="21"/>
        <edge id="-E10" sampledSeconds="1539.94" traveltime="40.52" overlapTraveltime="41.73" density="123.69" laneDensity="30.92" occupancy="15.13" waitingTime="1031.00" timeLoss="1350.55" speed="1.63" speedRelative="0.12" departed="0" arrived="0" entered="43" left="32" laneChangedFrom="37" laneChangedTo="37"/>
        <edge id="-E11" sampledSeconds="797.88" traveltime="20.48" overlapTraveltime="22.10" density="64.08" laneDensity="16.02" occupancy="7.72" waitingTime="430.00" timeLoss="612.59" speed="3.09" speedRelative="0.22" departed="0" arrived="0" entered="41" left="33" laneChangedFrom="22" laneChangedTo="22"/>
        <edge id="-E12" sampledSeconds="912.27" traveltime="19.93" overlapTraveltime="21.24" density="73.27" laneDensity="18.32" occupancy="8.82" waitingTime="503.00" timeLoss="694.68" speed="3.21" speedRelative="0.23" departed="0" arrived="0" entered="44" left="41" laneChangedFrom="25" laneChangedTo="25"/>
        <edge id="-E13" sampledSeconds="2892.77" traveltime="42.38" overlapTraveltime="43.96" density="179.95" laneDensity="44.99" occupancy="22.23" waitingTime="1623.00" timeLoss="2474.81" speed="1.97" speedRelative="0.14" departed="81" arrived="0" entered="0" left="61" laneChangedFrom="89" laneChangedTo="89"/>
        <edge id="-E14" sampledSeconds="1997.72" traveltime="38.98" overlapTraveltime="39.75" density="124.27" laneDensity="31.07" occupancy="15.40" waitingTime="1152.00" timeLoss="1671.90" speed="2.18" speedRelative="0.16" departed="60" arrived="0" entered="0" left="50" laneChangedFrom="67" laneChangedTo="67"/>
        <edge id="-E15" sampledSeconds="3372.41" traveltime="70.79" overlapTraveltime="72.59" density="209.79" laneDensity="52.45" occupancy="26.03" waitingTime="2239.00" timeLoss="3074.97" speed="1.19" speedRelative="0.09" departed="62" arrived="0" entered="0" left="43" laneChangedFrom="78" laneChangedTo="78"/>
        <edge id="-E16" sampledSeconds="2128.87" traveltime="34.57" overlapTraveltime="36.02" density="132.43" laneDensity="33.11" occupancy="16.34" waitingTime="1084.00" timeLoss="1751.72" speed="2.40" speedRelative="0.17" departed="71" arrived="0" entered="0" left="51" laneChangedFrom="86" laneChangedTo="86"/>
        <edge id="-E17" sampledSeconds="3751.92" traveltime="70.72" overlapTraveltime="72.26" density="233.40" laneDensity="58.35" occupancy="29.01" waitingTime="2510.00" timeLoss="3412.05" speed="1.20" speedRelative="0.09" departed="68" arrived="0" entered="0" left="44" laneChangedFrom="83" laneChangedTo="83"/>
        <edge id="-E18" sampledSeconds="628.80" traveltime="14.87" overlapTraveltime="16.21" density="50.50" laneDensity="12.63" occupancy="6.03" waitingTime="270.00" timeLoss="432.73" speed="4.21" speedRelative="0.30" departed="0" arrived="0" entered="41" left="33" laneChangedFrom="28" laneChangedTo="28"/>
        <edge id="-E19" sampledSeconds="823.80" traveltime="15.74" overlapTraveltime="16.86" density="66.17" laneDensity="16.54" occupancy="7.91" waitingTime="343.00" timeLoss="572.95" speed="4.04" speedRelative="0.29" departed="0" arrived="0" entered="51" left="46" laneChangedFrom="30" laneChangedTo="30"/>
        <edge id="-E2" sampledSeconds="1056.78" traveltime="29.39" overlapTraveltime="33.53" density="84.88" laneDensity="21.22" occupancy="10.07" waitingTime="664.00" timeLoss="897.45" speed="2.03" speedRelative="0.15" departed="0" arrived="0" entered="35" left="24" laneChangedFrom="27" laneChangedTo="27"/>
        <edge id="-E20" sampledSeconds="268.11" traveltime="12.47" overlapTraveltime="13.20" density="21.53" laneDensity="5.38" occupancy="2.57" waitingTime="83.00" timeLoss="165.05" speed="5.17" speedRelative="0.37" departed="0" arrived="0" entered="22" left="19" laneChangedFrom="26" laneChangedTo="26"/>
        <edge id="-E21" sampledSeconds="441.20" traveltime="26.26" overlapTraveltime="28.70" density="35.44" laneDensity="8.86" occupancy="4.26" waitingTime="232.00" timeLoss="365.55" speed="2.38" speedRelative="0.17" departed="0" arrived="0" entered="16" left="13" laneChangedFrom="31" laneChangedTo="31"/>
        <edge id="-E22" sampledSeconds="270.38" traveltime="31.70" overlapTraveltime="35.11" density="16.82" laneDensity="4.20" occupancy="2.03" waitingTime="135.00" timeLoss="211.99" speed="2.47" speedRelative="0.18" departed="9" arrived="0" entered="0" left="6" laneChangedFrom="13" laneChangedTo="13"/>
        <edge id="-E23" sampledSeconds="3737.43" traveltime="79.63" overlapTraveltime="82.10" density="232.50" laneDensity="58.12" occupancy="28.82" waitingTime="2540.00" timeLoss="3447.51" speed="1.05" speedRelative="0.08" departed="63" arrived="0" entered="0" left="41" laneChangedFrom="69" laneChangedTo="69"/>
        <edge id="-E3" sampledSeconds="3436.01" traveltime="52.54" overlapTraveltime="53.74" density="213.75" laneDensity="53.44" occupancy="26.57" waitingTime="2182.00" timeLoss="3028.37" speed="1.61" speedRelative="0.12" departed="84" arrived="0" entered="0" left="54" laneChangedFrom="83" laneChangedTo="83"/>
        <edge id="-E4" sampledSeconds="559.34" traveltime="18.29" overlapTraveltime="19.98" density="44.93" laneDensity="11.23" occupancy="5.36" waitingTime="328.00" timeLoss="417.11" speed="3.41" speedRelative="0.25" departed="0" arrived="0" entered="28" left="28" laneChangedFrom="10" laneChangedTo="10"/>
        <edge id="-E5" sampledSeconds="3610.65" traveltime="59.23" overlapTraveltime="60.79" density="224.61" laneDensity="56.15" occupancy="27.84" waitingTime="2291.00" timeLoss="3237.34" speed="1.42" speedRelative="0.10" departed="74" arrived="0" entered="0" left="57" laneChangedFrom="90" laneChangedTo="90"/>
        <edge id="-E6" sampledSeconds="2489.55" traveltime="75.29" overlapTraveltime="78.09" density="154.87" laneDensity="38.72" occupancy="19.18" waitingTime="1719.00" timeLoss="2286.89" speed="1.11" speedRelative="0.08" departed="45" arrived="0" entered="0" left="27" laneChangedFrom="59" laneChangedTo="59"/>
        <edge id="-E7" sampledSeconds="2943.55" traveltime="56.56" overlapTraveltime="57.86" density="183.11" laneDensity="45.78" occupancy="22.73" waitingTime="1805.00" timeLoss="2613.13" speed="1.50" speedRelative="0.11" departed="68" arrived="0" entered="0" left="45" laneChangedFrom="95" laneChangedTo="95"/>
        <edge id="-E8" sampledSeconds="442.69" traveltime="14.92" overlapTraveltime="16.36" density="35.56" laneDensity="8.89" occupancy="4.23" waitingTime="225.00" timeLoss="307.66" speed="4.17" speedRelative="0.30" departed="0" arrived="0" entered="28" left="27" laneChangedFrom="11" laneChangedTo="11"/>
        <edge id="-E9" sampledSeconds="2590.96" traveltime="46.32" overlapTraveltime="47.99" density="161.18" laneDensity="40.29" occupancy="19.91" waitingTime="1523.00" timeLoss="2254.33" speed="1.80" speedRelative="0.13" departed="70" arrived="0" entered="0" left="51" laneChangedFrom="89" laneChangedTo="89"/>
        <edge id="E0" sampledSeconds="405.62" traveltime="18.85" overlapTraveltime="20.01" density="32.58" laneDensity="8.14" occupancy="3.92" waitingTime="206.00" timeLoss="299.76" speed="3.41" speedRelative="0.25" departed="0" arrived="0" entered="22" left="16" laneChangedFrom="9" laneChangedTo="9"/>
        <edge id="E1" sampledSeconds="1152.85" traveltime="22.98" overlapTraveltime="24.53" density="92.60" laneDensity="23.15" occupancy="11.20" waitingTime="685.00" timeLoss="913.03" speed="2.78" speedRelative="0.20" departed="0" arrived="0" entered="48" left="45" laneChangedFrom="24" laneChangedTo="24"/>
        <edge id="E10" sampledSeconds="661.61" traveltime="22.46" overlapTraveltime="24.84" density="53.14" laneDensity="13.28" occupancy="6.38" waitingTime="381.00" timeLoss="525.12" speed="2.75" speedRelative="0.20" departed="0" arrived="0" entered="29" left="24" laneChangedFrom="12" laneChangedTo="12"/>
        <edge id="E11" sampledSeconds="435.67" traveltime="11.59" overlapTraveltime="12.55" density="34.99" laneDensity="8.75" occupancy="4.16" waitingTime="141.00" timeLoss="264.00" speed="5.43" speedRelative="0.39" departed="0" arrived="0" entered="35" left="33" laneChangedFrom="20" laneChangedTo="20"/>
        <edge id="E12" sampledSeconds="682.33" traveltime="18.39" overlapTraveltime="19.55" density="54.80" laneDensity="13.70" occupancy="6.62" waitingTime="368.00" timeLoss="505.31" speed="3.49" speedRelative="0.25" departed="0" arrived="0" entered="38" left="31" laneChangedFrom="22" laneChangedTo="22"/>
        <edge id="E13" sampledSeconds="183.33" traveltime="6.47" overlapTraveltime="6.85" density="11.40" laneDensity="2.85" occupancy="1.34" waitingTime="0.00" timeLoss="17.43" speed="12.64" speedRelative="0.91" departed="0" arrived="27" entered="27" left="0" laneChangedFrom="0" laneChangedTo="0"/>
        <edge id="E14" sampledSeconds="281.67" traveltime="6.74" overlapTraveltime="7.13" density="17.52" laneDensity="4.38" occupancy="2.06" waitingTime="0.00" timeLoss="31.52" speed="12.14" speedRelative="0.87" departed="0" arrived="40" entered="40" left="0" laneChangedFrom="0" laneChangedTo="0"/>
        <edge id="E15" sampledSeconds="179.78" traveltime="6.62" overlapTraveltime="6.99" density="11.18" laneDensity="2.80" occupancy="1.31" waitingTime="0.00" timeLoss="24.82" speed="12.39" speedRelative="0.89" departed="0" arrived="26" entered="26" left="0" laneChangedFrom="0" laneChangedTo="0"/>
        <edge id="E16" sampledSeconds="230.56" traveltime="6.94" overlapTraveltime="7.33" density="14.34" laneDensity="3.59" occupancy="1.69" waitingTime="0.00" timeLoss="29.94" speed="11.81" speedRelative="0.85" departed="0" arrived="30" entered="33" left="0" laneChangedFrom="0" laneChangedTo="0"/>
        <edge id="E17" sampledSeconds="193.83" traveltime="6.40" overlapTraveltime="6.78" density="12.06" laneDensity="3.01" occupancy="1.42" waitingTime="0.00" timeLoss="18.13" speed="12.77" speedRelative="0.92" departed="0" arrived="28" entered="29" left="0" laneChangedFrom="0" laneChangedTo="0"/>
        <edge id="E18" sampledSeconds="1055.83" traveltime="25.67" overlapTraveltime="27.31" density="84.80" laneDensity="21.20" occupancy="10.26" waitingTime="643.00" timeLoss="863.21" speed="2.50" speedRelative="0.18" departed="0" arrived="0" entered="40" left="36" laneChangedFrom="30" laneChangedTo="30"/>
        <edge id="E19" sampledSeconds="420.41" traveltime="10.63" overlapTraveltime="12.36" density="33.77" laneDensity="8.44" occupancy="3.94" waitingTime="139.00" timeLoss="252.09" speed="5.52" speedRelative="0.40" departed="0" arrived="0" entered="35" left="31" laneChangedFrom="19" laneChangedTo="19"/>
        <edge id="E2" sampledSeconds="587.85" traveltime="21.41" overlapTraveltime="22.76" density="47.22" laneDensity="11.80" occupancy="5.71" waitingTime="357.00" timeLoss="454.24" speed="3.00" speedRelative="0.22" departed="0" arrived="0" entered="26" left="24" laneChangedFrom="12" laneChangedTo="12"/>
        <edge id="E20" sampledSeconds="743.92" traveltime="14.81" overlapTraveltime="16.12" density="59.75" laneDensity="14.94" occupancy="7.11" waitingTime="302.00" timeLoss="516.48" speed="4.23" speedRelative="0.30" departed="0" arrived="0" entered="49" left="43" laneChangedFrom="35" laneChangedTo="35"/>
        <edge id="E21" sampledSeconds="512.56" traveltime="13.32" overlapTraveltime="14.02" density="41.17" laneDensity="10.29" occupancy="4.91" waitingTime="193.00" timeLoss="332.32" speed="4.86" speedRelative="0.35" departed="0" arrived="0" entered="39" left="33" laneChangedFrom="32" laneChangedTo="32"/>
        <edge id="E22" sampledSeconds="263.96" traveltime="6.89" overlapTraveltime="7.28" density="16.42" laneDensity="4.11" occupancy="1.92" waitingTime="0.00" timeLoss="35.73" speed="11.89" speedRelative="0.86" departed="0" arrived="36" entered="37" left="0" laneChangedFrom="0" laneChangedTo="0"/>
        <edge id="E23" sampledSeconds="236.36" traveltime="6.49" overlapTraveltime="6.87" density="14.70" laneDensity="3.68" occupancy="1.72" waitingTime="0.00" timeLoss="28.59" speed="12.61" speedRelative="0.91" departed="0" arrived="33" entered="37" left="0" laneChangedFrom="0" laneChangedTo="0"/>
        <edge id="E3" sampledSeconds="135.01" traveltime="6.78" overlapTraveltime="7.17" density="8.40" laneDensity="2.10" occupancy="0.99" waitingTime="0.00" timeLoss="14.54" speed="12.08" speedRelative="0.87" departed="0" arrived="19" entered="19" left="0" laneChangedFrom="0" laneChangedTo="0"/>
        <edge id="E4" sampledSeconds="1017.19" traveltime="21.57" overlapTraveltime="23.02" density="81.70" laneDensity="20.42" occupancy="9.88" waitingTime="502.00" timeLoss="798.42" speed="2.96" speedRelative="0.21" departed="0" arrived="0" entered="48" left="41" laneChangedFrom="39" laneChangedTo="39"/>
        <edge id="E5" sampledSeconds="106.21" traveltime="6.36" overlapTraveltime="6.74" density="6.61" laneDensity="1.65" occupancy="0.78" waitingTime="0.00" timeLoss="7.81" speed="12.85" speedRelative="0.93" departed="0" arrived="15" entered="17" left="0" laneChangedFrom="0" laneChangedTo="0"/>
        <edge id="E6" sampledSeconds="218.95" traveltime="6.73" overlapTraveltime="7.13" density="13.62" laneDensity="3.41" occupancy="1.60" waitingTime="0.00" timeLoss="25.08" speed="12.15" speedRelative="0.87" departed="0" arrived="31" entered="31" left="0" laneChangedFrom="0" laneChangedTo="0"/>
        <edge id="E7" sampledSeconds="121.11" traveltime="6.48" overlapTraveltime="6.86" density="7.53" laneDensity="1.88" occupancy="0.89" waitingTime="0.00" timeLoss="11.89" speed="12.62" speedRelative="0.91" departed="0" arrived="18" entered="18" left="0" laneChangedFrom="0" laneChangedTo="0"/>
        <edge id="E8" sampledSeconds="1119.33" traveltime="21.89" overlapTraveltime="23.62" density="89.90" laneDensity="22.48" occupancy="10.80" waitingTime="587.00" timeLoss="885.88" speed="2.89" speedRelative="0.21" departed="0" arrived="0" entered="52" left="44" laneChangedFrom="41" laneChangedTo="41"/>
        <edge id="E9" sampledSeconds="179.05" traveltime="6.63" overlapTraveltime="7.01" density="11.14" laneDensity="2.78" occupancy="1.31" waitingTime="0.00" timeLoss="19.86" speed="12.35" speedRelative="0.89" departed="0" arrived="25" entered="27" left="0" laneChangedFrom="0" laneChangedTo="0"/>
    </interval>
    <interval begin="0.00" end="197.00" id="AllData">
        <edge id="-E0" sampledSeconds="1046.01" traveltime="26.81" overlapTraveltime="30.15" density="84.01" laneDensity="21.00" occupancy="9.90" waitingTime="592.00" timeLoss="869.33" speed="2.26" speedRelative="0.16" departed="0" arrived="0" entered="37" left="27" laneChangedFrom="38" laneChangedTo="38"/>
        <edge id="-E1" sampledSeconds="766.88" traveltime="24.72" overlapTraveltime="26.19" density="61.59" laneDensity="15.40" occupancy="7.42" waitingTime="458.00" timeLoss="614.71" speed="2.60" speedRelative="0.19" departed="0" arrived="0" entered="32" left="23" laneChangedFrom="21" laneChangedTo="21"/>
        <edge id="-E10" sampledSeconds="1539.94" traveltime="40.52" overlapTraveltime="41.73" density="123.69" laneDensity="30.92" occupancy="15.13" waitingTime="1031.00" timeLoss="1350.55" speed="1.63" speedRelative="0.12" departed="0" arrived="0" entered="43" left="32" laneChangedFrom="37" laneChangedTo="37"/>
        <edge id="-E11" sampledSeconds="797.88" traveltime="20.48" overlapTraveltime="22.10" density="64.08" laneDensity="16.02" occupancy="7.72" waitingTime="430.00" timeLoss="612.59" speed="3.09" speedRelative="0.22" departed="0" arrived="0" entered="41" left="33" laneChangedFrom="22" laneChangedTo="22"/>
        <edge id="-E12" sampledSeconds="912.27" traveltime="19.93" overlapTraveltime="21.24" density="73.27" laneDensity="18.32" occupancy="8.82" waitingTime="503.00" timeLoss="694.68" speed="3.21" speedRelative="0.23" departed="0" arrived="0" entered="44" left="41" laneChangedFrom="25" laneChangedTo="25"/>
        <edge id="-E13" sampledSeconds="2892.77" traveltime="42.38" overlapTraveltime="43.96" density="179.95" laneDensity="44.99" occupancy="22.23" waitingTime="1623.00" timeLoss="2474.81" speed="1.97" speedRelative="0.14" departed="81" arrived="0" entered="0" left="61" laneChangedFrom="89" laneChangedTo="89"/>
        <edge id="-E14" sampledSeconds="1997.72" traveltime="38.98" overlapTraveltime="39.75" density="124.27" laneDensity="31.07" occupancy="15.40" waitingTime="1152.00" timeLoss="1671.90" speed="2.18" speedRelative="0.16" departed="60" arrived="0" entered="0" left="50" laneChangedFrom="67" laneChangedTo="67"/>
        <edge id="-E15" sampledSeconds="3372.41" traveltime="70.79" overlapTraveltime="72.59" density="209.79" laneDensity="52.45" occupancy="26.03" waitingTime="2239.00" timeLoss="3074.97" speed="1.19" speedRelative="0.09" departed="62" arrived="0" entered="0" left="43" laneChangedFrom="78" laneChangedTo="78"/>
        <edge id="-E16" sampledSeconds="2128.87" traveltime="34.57" overlapTraveltime="36.02" density="132.43" laneDensity="33.11" occupancy="16.34" waitingTime="1084.00" timeLoss="1751.72" speed="2.40" speedRelative="0.17" departed="71" arrived="0" entered="0" left="51" laneChangedFrom="86" laneChangedTo="86"/>
        <edge id="-E17" sampledSeconds="3751.92" traveltime="70.72" overlapTraveltime="72.26" density="233.40" laneDensity="58.35" occupancy="29.01" waitingTime="2510.00" timeLoss="3412.05" speed="1.20" speedRelative="0.09" departed="68" arrived="0" entered="0" left="44" laneChangedFrom="83" laneChangedTo="83"/>
        <edge id="-E18" sampledSeconds="628.80" traveltime="14.87" overlapTraveltime="16.21" density="50.50" laneDensity="12.63" occupancy="6.03" waitingTime="270.00" timeLoss="432.73" speed="4.21" speedRelative="0.30" departed="0" arrived="0" entered="41" left="33" laneChangedFrom="28" laneChangedTo="28"/>
        <edge id="-E19" sampledSeconds="823.80" traveltime="15.74" overlapTraveltime="16.86" density="66.17" laneDensity="16.54" occupancy="7.91" waitingTime="343.00" timeLoss="572.95" speed="4.04" speedRelative="0.29" departed="0" arrived="0" entered="51" left="46" laneChangedFrom="30" laneChangedTo="30"/>
        <edge id="-E2" sampledSeconds="1056.78" traveltime="29.39" overlapTraveltime="33.53" density="84.88" laneDensity="21.22" occupancy="10.07" waitingTime="664.00" timeLoss="897.45" speed="2.03" speedRelative="0.15" departed="0" arrived="0" entered="35" left="24" laneChangedFrom="27" laneChangedTo="27"/>
        <edge id="-E20" sampledSeconds="268.11" traveltime="12.47" overlapTraveltime="13.20" density="21.53" laneDensity="5.38" occupancy="2.57" waitingTime="83.00" timeLoss="165.05" speed="5.17" speedRelative="0.37" departed="0" arrived="0" entered="22" left="19" laneChangedFrom="26" laneChangedTo="26"/>
        <edge id="-E21" sampledSeconds="441.20" traveltime="26.26" overlapTraveltime="28.70" density="35.44" laneDensity="8.86" occupancy="4.26" waitingTime="232.00" timeLoss="365.55" speed="2.38" speedRelative="0.17" departed="0" arrived="0" entered="16" left="13" laneChangedFrom="31" laneChangedTo="31"/>
        <edge id="-E22" sampledSeconds="270.38" traveltime="31.70" overlapTraveltime="35.11" density="16.82" laneDensity="4.20" occupancy="2.03" waitingTime="135.00" timeLoss="211.99" speed="2.47" speedRelative="0.18" departed="9" arrived="0" entered="0" left="6" laneChangedFrom="13" laneChangedTo="13"/>
        <edge id="-E23" sampledSeconds="3737.43" traveltime="79.63" overlapTraveltime="82.10" density="232.50" laneDensity="58.12" occupancy="28.82" waitingTime="2540.00" timeLoss="3447.51" speed="1.05" speedRelative="0.08" departed="63" arrived="0" entered="0" left="41" laneChangedFrom="69" laneChangedTo="69"/>
        <edge id="-E3" sampledSeconds="3495.15" traveltime="52.26" overlapTraveltime="53.46" density="217.43" laneDensity="54.36" occupancy="27.16" waitingTime="2212.00" timeLoss="3081.46" speed="1.62" speedRelative="0.12" departed="85" arrived="0" entered="0" left="55" laneChangedFrom="85" laneChangedTo="85"/>
        <edge id="-E4" sampledSeconds="559.34" traveltime="18.29" overlapTraveltime="19.98" density="44.93" laneDensity="11.23" occupancy="5.36" waitingTime="328.00" timeLoss="417.11" speed="3.41" speedRelative="0.25" departed="0" arrived="0" entered="28" left="28" laneChangedFrom="10" laneChangedTo="10"/>
        <edge id="-E5" sampledSeconds="3610.65" traveltime="59.23" overlapTraveltime="60.79" density="224.61" laneDensity="56.15" occupancy="27.84" waitingTime="2291.00" timeLoss="3237.34" speed="1.42" speedRelative="0.10" departed="74" arrived="0" entered="0" left="57" laneChangedFrom="90" laneChangedTo="90"/>
        <edge id="-E6" sampledSeconds="2489.55" traveltime="75.29" overlapTraveltime="78.09" density="154.87" laneDensity="38.72" occupancy="19.18" waitingTime="1719.00" timeLoss="2286.89" speed="1.11" speedRelative="0.08" departed="45" arrived="0" entered="0" left="27" laneChangedFrom="59" laneChangedTo="59"/>
        <edge id="-E7" sampledSeconds="2943.55" traveltime="56.56" overlapTraveltime="57.86" density="183.11" laneDensity="45.78" occupancy="22.73" waitingTime="1805.00" timeLoss="2613.13" speed="1.50" speedRelative="0.11" departed="68" arrived="0" entered="0" left="45" laneChangedFrom="95" laneChangedTo="95"/>
        <edge id="-E8" sampledSeconds="442.69" traveltime="14.92" overlapTraveltime="16.36" density="35.56" laneDensity="8.89" occupancy="4.23" waitingTime="225.00" timeLoss="307.66" speed="4.17" speedRelative="0.30" departed="0" arrived="0" entered="28" left="27" laneChangedFrom="11" laneChangedTo="11"/>
        <edge id="-E9" sampledSeconds="2590.96" traveltime="46.32" overlapTraveltime="47.99" density="161.18" laneDensity="40.29" occupancy="19.91" waitingTime="1523.00" timeLoss="2254.33" speed="1.80" speedRelative="0.13" departed="70" arrived="0" entered="0" left="51" laneChangedFrom="89" laneChangedTo="89"/>
        <edge id="E0" sampledSeconds="405.62" traveltime="18.85" overlapTraveltime="20.01" density="32.58" laneDensity="8.14" occupancy="3.92" waitingTime="206.00" timeLoss="299.76" speed="3.41" speedRelative="0.25" departed="0" arrived="0" entered="22" left="16" laneChangedFrom="9" laneChangedTo="9"/>
        <edge id="E1" sampledSeconds="1159.38" traveltime="22.63" overlapTraveltime="24.15" density="93.12" laneDensity="23.28" occupancy="11.27" waitingTime="685.00" timeLoss="916.22" speed="2.82" speedRelative="0.20" departed="0" arrived="0" entered="49" left="46" laneChangedFrom="25" laneChangedTo="25"/>
        <edge id="E10" sampledSeconds="661.61" traveltime="22.46" overlapTraveltime="24.84" density="53.14" laneDensity="13.28" occupancy="6.38" waitingTime="381.00" timeLoss="525.12" speed="2.75" speedRelative="0.20" departed="0" arrived="0" entered="29" left="24" laneChangedFrom="12" laneChangedTo="12"/>
        <edge id="E11" sampledSeconds="444.68" traveltime="11.55" overlapTraveltime="12.52" density="35.72" laneDensity="8.93" occupancy="4.27" waitingTime="141.00" timeLoss="270.35" speed="5.45" speedRelative="0.39" departed="0" arrived="0" entered="36" left="33" laneChangedFrom="21" laneChangedTo="21"/>
        <edge id="E12" sampledSeconds="682.33" traveltime="18.39" overlapTraveltime="19.55" density="54.80" laneDensity="13.70" occupancy="6.62" waitingTime="368.00" timeLoss="505.31" speed="3.49" speedRelative="0.25" departed="0" arrived="0" entered="38" left="31" laneChangedFrom="22" laneChangedTo="22"/>
        <edge id="E13" sampledSeconds="183.33" traveltime="6.47" overlapTraveltime="6.85" density="11.40" laneDensity="2.85" occupancy="1.34" waitingTime="0.00" timeLoss="17.43" speed="12.64" speedRelative="0.91" departed="0" arrived="27" entered="27" left="0" laneChangedFrom="0" laneChangedTo="0"/>
        <edge id="E14" sampledSeconds="281.67" traveltime="6.74" overlapTraveltime="7.13" density="17.52" laneDensity="4.38" occupancy="2.06" waitingTime="0.00" timeLoss="31.52" speed="12.14" speedRelative="0.87" departed="0" arrived="40" entered="40" left="0" laneChangedFrom="0" laneChangedTo="0"/>
        <edge id="E15" sampledSeconds="179.78" traveltime="6.62" overlapTraveltime="6.99" density="11.18" laneDensity="2.80" occupancy="1.31" waitingTime="0.00" timeLoss="24.82" speed="12.39" speedRelative="0.89" departed="0" arrived="26" entered="26" left="0" laneChangedFrom="0" laneChangedTo="0"/>
        <edge id="E16" sampledSeconds="230.56" traveltime="6.94" overlapTraveltime="7.33" density="14.34" laneDensity="3.59" occupancy="1.69" waitingTime="0.00" timeLoss="29.94" speed="11.81" speedRelative="0.85" departed="0" arrived="30" entered="33" left="0" laneChangedFrom="0" laneChangedTo="0"/>
        <edge id="E17" sampledSeconds="193.83" traveltime="6.40" overlapTraveltime="6.78" density="12.06" laneDensity="3.01" occupancy="1.42" waitingTime="0.00" timeLoss="18.13" speed="12.77" speedRelative="0.92" departed="0" arrived="28" entered="29" left="0" laneChangedFrom="0" laneChangedTo="0"/>
        <edge id="E18" sampledSeconds="1055.83" traveltime="25.67" overlapTraveltime="27.31" density="84.80" laneDensity="21.20" occupancy="10.26" waitingTime="643.00" timeLoss="863.21" speed="2.50" speedRelative="0.18" departed="0" arrived="0" entered="40" left="36" laneChangedFrom="30" laneChangedTo="30"/>
        <edge id="E19" sampledSeconds="420.41" traveltime="10.63" overlapTraveltime="12.36" density="33.77" laneDensity="8.44" occupancy="3.94" waitingTime="139.00" timeLoss="252.09" speed="5.52" speedRelative="0.40" departed="0" arrived="0" entered="35" left="31" laneChangedFrom="19" laneChangedTo="19"/>
        <edge id="E2" sampledSeconds="587.85" traveltime="21.41" overlapTraveltime="22.76" density="47.22" laneDensity="11.80" occupancy="5.71" waitingTime="357.00" timeLoss="454.24" speed="3.00" speedRelative="0.22" departed="0" arrived="0" entered="26" left="24" laneChangedFrom="12" laneChangedTo="12"/>
        <edge id="E20" sampledSeconds="743.92" traveltime="14.81" overlapTraveltime="16.12" density="59.75" laneDensity="14.94" occupancy="7.11" waitingTime="302.00" timeLoss="516.48" speed="4.23" speedRelative="0.30" departed="0" arrived="0" entered="49" left="43" laneChangedFrom="35" laneChangedTo="35"/>
        <edge id="E21" sampledSeconds="512.56" traveltime="13.32" overlapTraveltime="14.02" density="41.17" laneDensity="10.29" occupancy="4.91" waitingTime="193.00" timeLoss="332.32" speed="4.86" speedRelative="0.35" departed="0" arrived="0" entered="39" left="33" laneChangedFrom="32" laneChangedTo="32"/>
        <edge id="E22" sampledSeconds="263.96" traveltime="6.89" overlapTraveltime="7.28" density="16.42" laneDensity="4.11" occupancy="1.92" waitingTime="0.00" timeLoss="35.73" speed="11.89" speedRelative="0.86" departed="0" arrived="36" entered="37" left="0" laneChangedFrom="0" laneChangedTo="0"/>
        <edge id="E23" sampledSeconds="236.36" traveltime="6.49" overlapTraveltime="6.87" density="14.70" laneDensity="3.68" occupancy="1.72" waitingTime="0.00" timeLoss="28.59" speed="12.61" speedRelative="0.91" departed="0" arrived="33" entered="37" left="0" laneChangedFrom="0" laneChangedTo="0"/>
        <edge id="E3" sampledSeconds="135.01" traveltime="6.78" overlapTraveltime="7.17" density="8.40" laneDensity="2.10" occupancy="0.99" waitingTime="0.00" timeLoss="14.54" speed="12.08" speedRelative="0.87" departed="0" arrived="19" entered="19" left="0" laneChangedFrom="0" laneChangedTo="0"/>