<?xml version="1.0" encoding="UTF-8"?>

<<<<<<< HEAD
<!-- generated on 2022-11-28 15:13:45 by Eclipse SUMO GUI Version 1.14.1
=======
<!-- generated on 2022-11-28 17:22:27 by Eclipse SUMO GUI Version 1.14.1
>>>>>>> 7fbbaef2a54e2b9d86a982446a0d0a3adbd90e2a
<configuration xmlns:xsi="http://www.w3.org/2001/XMLSchema-instance" xsi:noNamespaceSchemaLocation="http://sumo.dlr.de/xsd/sumoConfiguration.xsd">

    <input>
        <net-file value="C:\Users\connp\OneDrive\Documents\_Pitt\CS1980-Team_Project\team-project\3x3Grid\network.net.xml"/>
        <route-files value="C:\Users\connp\OneDrive\Documents\_Pitt\CS1980-Team_Project\team-project\3x3Grid\routes_EMS.rou.xml"/>
        <additional-files value="C:\Users\connp\OneDrive\Documents\_Pitt\CS1980-Team_Project\team-project\3x3Grid\additionals_EMS.add.xml"/>
    </input>

    <time>
        <begin value="0"/>
        <end value="300"/>
    </time>

    <processing>
        <lateral-resolution value="1.8"/>
    </processing>

</configuration>
-->

<meandata xmlns:xsi="http://www.w3.org/2001/XMLSchema-instance" xsi:noNamespaceSchemaLocation="http://sumo.dlr.de/xsd/meandata_file.xsd">
<<<<<<< HEAD
    <interval begin="0.00" end="190.00" id="EMSData">
        <edge id="-E3" sampledSeconds="14.07" traveltime="14.06" overlapTraveltime="15.21" density="0.91" laneDensity="0.23" occupancy="0.14" waitingTime="0.00" timeLoss="10.16" speed="5.79" speedRelative="0.42" departed="1" arrived="0" entered="0" left="1" laneChangedFrom="0" laneChangedTo="0"/>
        <edge id="E1" sampledSeconds="25.49" traveltime="23.76" overlapTraveltime="25.49" density="2.12" laneDensity="0.53" occupancy="0.33" waitingTime="17.00" timeLoss="22.15" speed="2.73" speedRelative="0.20" departed="0" arrived="0" entered="1" left="1" laneChangedFrom="0" laneChangedTo="0"/>
        <edge id="E11" sampledSeconds="17.69" traveltime="16.49" overlapTraveltime="17.69" density="1.47" laneDensity="0.37" occupancy="0.23" waitingTime="7.00" timeLoss="14.35" speed="3.94" speedRelative="0.28" departed="0" arrived="0" entered="1" left="1" laneChangedFrom="1" laneChangedTo="1"/>
        <edge id="E14" sampledSeconds="1.76" traveltime="5.96" overlapTraveltime="6.44" density="0.11" laneDensity="0.03" occupancy="0.02" waitingTime="0.00" timeLoss="0.61" speed="13.68" speedRelative="0.99" departed="0" arrived="0" entered="1" left="0" laneChangedFrom="0" laneChangedTo="0"/>
    </interval>
    <interval begin="0.00" end="190.00" id="OtherData">
        <edge id="-E0" sampledSeconds="514.27" traveltime="12.76" overlapTraveltime="13.90" density="42.83" laneDensity="10.71" occupancy="5.07" waitingTime="155.00" timeLoss="325.15" speed="4.91" speedRelative="0.35" departed="0" arrived="0" entered="37" left="37" laneChangedFrom="36" laneChangedTo="36"/>
        <edge id="-E1" sampledSeconds="695.56" traveltime="24.82" overlapTraveltime="25.83" density="57.92" laneDensity="14.48" occupancy="7.05" waitingTime="443.00" timeLoss="555.14" speed="2.64" speedRelative="0.19" departed="0" arrived="0" entered="30" left="23" laneChangedFrom="18" laneChangedTo="18"/>
        <edge id="-E10" sampledSeconds="1396.14" traveltime="40.78" overlapTraveltime="41.98" density="116.27" laneDensity="29.07" occupancy="14.25" waitingTime="966.00" timeLoss="1229.89" speed="1.62" speedRelative="0.12" departed="0" arrived="0" entered="39" left="29" laneChangedFrom="29" laneChangedTo="29"/>
        <edge id="-E11" sampledSeconds="753.78" traveltime="23.19" overlapTraveltime="25.03" density="62.77" laneDensity="15.69" occupancy="7.59" waitingTime="451.00" timeLoss="600.44" speed="2.72" speedRelative="0.20" departed="0" arrived="0" entered="34" left="27" laneChangedFrom="22" laneChangedTo="22"/>
        <edge id="-E12" sampledSeconds="927.08" traveltime="19.92" overlapTraveltime="21.26" density="77.21" laneDensity="19.30" occupancy="9.28" waitingTime="503.00" timeLoss="704.81" speed="3.21" speedRelative="0.23" departed="0" arrived="0" entered="45" left="42" laneChangedFrom="27" laneChangedTo="27"/>
        <edge id="-E13" sampledSeconds="2314.76" traveltime="39.60" overlapTraveltime="41.05" density="149.30" laneDensity="37.33" occupancy="18.41" waitingTime="1303.00" timeLoss="1955.37" speed="2.11" speedRelative="0.15" departed="63" arrived="0" entered="0" left="55" laneChangedFrom="76" laneChangedTo="76"/>
        <edge id="-E14" sampledSeconds="1666.47" traveltime="42.55" overlapTraveltime="43.35" density="107.49" laneDensity="26.87" occupancy="13.33" waitingTime="1034.00" timeLoss="1417.24" speed="2.00" speedRelative="0.14" departed="42" arrived="0" entered="0" left="38" laneChangedFrom="60" laneChangedTo="60"/>
        <edge id="-E15" sampledSeconds="3242.66" traveltime="64.63" overlapTraveltime="66.56" density="209.15" laneDensity="52.29" occupancy="25.97" waitingTime="2128.00" timeLoss="2931.50" speed="1.30" speedRelative="0.09" departed="62" arrived="0" entered="0" left="40" laneChangedFrom="78" laneChangedTo="78"/>
        <edge id="-E16" sampledSeconds="1751.09" traveltime="32.48" overlapTraveltime="33.88" density="112.94" laneDensity="28.24" occupancy="13.89" waitingTime="891.00" timeLoss="1422.53" speed="2.56" speedRelative="0.18" departed="56" arrived="0" entered="0" left="51" laneChangedFrom="67" laneChangedTo="67"/>
        <edge id="-E17" sampledSeconds="3628.27" traveltime="70.57" overlapTraveltime="72.73" density="234.02" laneDensity="58.51" occupancy="29.05" waitingTime="2486.00" timeLoss="3302.83" speed="1.19" speedRelative="0.09" departed="68" arrived="0" entered="0" left="42" laneChangedFrom="80" laneChangedTo="80"/>
        <edge id="-E18" sampledSeconds="568.54" traveltime="14.54" overlapTraveltime="15.89" density="47.35" laneDensity="11.84" occupancy="5.64" waitingTime="229.00" timeLoss="387.84" speed="4.29" speedRelative="0.31" departed="0" arrived="0" entered="37" left="33" laneChangedFrom="27" laneChangedTo="27"/>
        <edge id="-E19" sampledSeconds="759.32" traveltime="15.85" overlapTraveltime="16.92" density="63.23" laneDensity="15.81" occupancy="7.56" waitingTime="315.00" timeLoss="530.15" speed="4.03" speedRelative="0.29" departed="0" arrived="0" entered="46" left="43" laneChangedFrom="28" laneChangedTo="28"/>
        <edge id="-E2" sampledSeconds="775.00" traveltime="25.11" overlapTraveltime="26.82" density="64.54" laneDensity="16.13" occupancy="7.79" waitingTime="442.00" timeLoss="627.76" speed="2.54" speedRelative="0.18" departed="0" arrived="0" entered="31" left="27" laneChangedFrom="24" laneChangedTo="24"/>
        <edge id="-E20" sampledSeconds="250.88" traveltime="12.29" overlapTraveltime="12.99" density="20.89" laneDensity="5.22" occupancy="2.49" waitingTime="80.00" timeLoss="152.91" speed="5.25" speedRelative="0.38" departed="0" arrived="0" entered="20" left="19" laneChangedFrom="22" laneChangedTo="22"/>
        <edge id="-E21" sampledSeconds="417.72" traveltime="28.30" overlapTraveltime="30.76" density="34.79" laneDensity="8.70" occupancy="4.18" waitingTime="226.00" timeLoss="350.42" speed="2.22" speedRelative="0.16" departed="0" arrived="0" entered="15" left="13" laneChangedFrom="25" laneChangedTo="25"/>
        <edge id="-E22" sampledSeconds="215.00" traveltime="41.28" overlapTraveltime="45.69" density="13.87" laneDensity="3.47" occupancy="1.67" waitingTime="127.00" timeLoss="177.69" speed="1.90" speedRelative="0.14" departed="5" arrived="0" entered="0" left="5" laneChangedFrom="5" laneChangedTo="5"/>
        <edge id="-E23" sampledSeconds="3312.91" traveltime="75.60" overlapTraveltime="77.96" density="213.68" laneDensity="53.42" occupancy="26.48" waitingTime="2158.00" timeLoss="3045.49" speed="1.11" speedRelative="0.08" departed="56" arrived="0" entered="0" left="39" laneChangedFrom="66" laneChangedTo="66"/>
        <edge id="-E3" sampledSeconds="2802.86" traveltime="47.40" overlapTraveltime="48.31" density="180.78" laneDensity="45.20" occupancy="22.46" waitingTime="1682.00" timeLoss="2432.30" speed="1.79" speedRelative="0.13" departed="65" arrived="0" entered="0" left="53" laneChangedFrom="84" laneChangedTo="84"/>
        <edge id="-E4" sampledSeconds="551.22" traveltime="18.41" overlapTraveltime="20.20" density="45.90" laneDensity="11.48" occupancy="5.48" waitingTime="323.00" timeLoss="412.38" speed="3.38" speedRelative="0.24" departed="0" arrived="0" entered="28" left="26" laneChangedFrom="10" laneChangedTo="10"/>
        <edge id="-E5" sampledSeconds="3637.50" traveltime="63.17" overlapTraveltime="64.89" density="234.62" laneDensity="58.65" occupancy="29.09" waitingTime="2444.00" timeLoss="3285.64" speed="1.33" speedRelative="0.10" departed="71" arrived="0" entered="0" left="51" laneChangedFrom="70" laneChangedTo="70"/>
        <edge id="-E6" sampledSeconds="2416.11" traveltime="86.89" overlapTraveltime="90.89" density="155.84" laneDensity="38.96" occupancy="19.28" waitingTime="1779.00" timeLoss="2247.24" speed="0.95" speedRelative="0.07" departed="35" arrived="0" entered="0" left="21" laneChangedFrom="50" laneChangedTo="50"/>
        <edge id="-E7" sampledSeconds="2774.27" traveltime="52.50" overlapTraveltime="53.85" density="178.94" laneDensity="44.73" occupancy="22.20" waitingTime="1615.00" timeLoss="2439.15" speed="1.61" speedRelative="0.12" departed="63" arrived="0" entered="0" left="44" laneChangedFrom="95" laneChangedTo="95"/>
        <edge id="-E8" sampledSeconds="441.46" traveltime="14.93" overlapTraveltime="16.37" density="36.76" laneDensity="9.19" occupancy="4.38" waitingTime="225.00" timeLoss="307.06" speed="4.17" speedRelative="0.30" departed="0" arrived="0" entered="29" left="25" laneChangedFrom="11" laneChangedTo="11"/>
        <edge id="-E9" sampledSeconds="2082.28" traveltime="39.01" overlapTraveltime="40.58" density="134.31" laneDensity="33.58" occupancy="16.56" waitingTime="1180.00" timeLoss="1763.50" speed="2.13" speedRelative="0.15" departed="56" arrived="0" entered="0" left="50" laneChangedFrom="78" laneChangedTo="78"/>
        <edge id="E0" sampledSeconds="386.83" traveltime="13.41" overlapTraveltime="14.29" density="32.21" laneDensity="8.05" occupancy="3.83" waitingTime="164.00" timeLoss="244.95" speed="4.77" speedRelative="0.34" departed="0" arrived="0" entered="28" left="27" laneChangedFrom="9" laneChangedTo="9"/>
        <edge id="E1" sampledSeconds="1198.16" traveltime="24.34" overlapTraveltime="25.87" density="99.78" laneDensity="24.94" occupancy="12.08" waitingTime="737.00" timeLoss="962.59" speed="2.64" speedRelative="0.19" departed="0" arrived="0" entered="48" left="44" laneChangedFrom="25" laneChangedTo="25"/>
        <edge id="E10" sampledSeconds="612.56" traveltime="24.03" overlapTraveltime="26.55" density="51.01" laneDensity="12.75" occupancy="6.14" waitingTime="380.00" timeLoss="495.43" speed="2.57" speedRelative="0.18" departed="0" arrived="0" entered="24" left="21" laneChangedFrom="10" laneChangedTo="10"/>
        <edge id="E11" sampledSeconds="436.58" traveltime="12.67" overlapTraveltime="13.52" density="36.36" laneDensity="9.09" occupancy="4.35" waitingTime="174.00" timeLoss="278.48" speed="5.05" speedRelative="0.36" departed="0" arrived="0" entered="35" left="28" laneChangedFrom="19" laneChangedTo="19"/>
        <edge id="E12" sampledSeconds="623.09" traveltime="17.76" overlapTraveltime="18.93" density="51.89" laneDensity="12.97" occupancy="6.26" waitingTime="341.00" timeLoss="456.93" speed="3.60" speedRelative="0.26" departed="0" arrived="0" entered="37" left="29" laneChangedFrom="21" laneChangedTo="21"/>
        <edge id="E13" sampledSeconds="168.46" traveltime="6.42" overlapTraveltime="6.80" density="10.87" laneDensity="2.72" occupancy="1.28" waitingTime="0.00" timeLoss="14.88" speed="12.74" speedRelative="0.92" departed="0" arrived="25" entered="25" left="0" laneChangedFrom="0" laneChangedTo="0"/>
        <edge id="E14" sampledSeconds="260.21" traveltime="6.80" overlapTraveltime="7.19" density="16.78" laneDensity="4.20" occupancy="1.98" waitingTime="0.00" timeLoss="29.98" speed="12.05" speedRelative="0.87" departed="0" arrived="35" entered="38" left="0" laneChangedFrom="0" laneChangedTo="0"/>
        <edge id="E15" sampledSeconds="154.79" traveltime="6.62" overlapTraveltime="6.99" density="9.98" laneDensity="2.50" occupancy="1.16" waitingTime="0.00" timeLoss="22.84" speed="12.39" speedRelative="0.89" departed="0" arrived="21" entered="24" left="0" laneChangedFrom="0" laneChangedTo="0"/>
        <edge id="E16" sampledSeconds="204.88" traveltime="6.77" overlapTraveltime="7.15" density="13.21" laneDensity="3.30" occupancy="1.55" waitingTime="0.00" timeLoss="25.17" speed="12.10" speedRelative="0.87" departed="0" arrived="29" entered="29" left="0" laneChangedFrom="0" laneChangedTo="0"/>
        <edge id="E17" sampledSeconds="180.87" traveltime="6.43" overlapTraveltime="6.81" density="11.67" laneDensity="2.92" occupancy="1.38" waitingTime="0.00" timeLoss="17.03" speed="12.71" speedRelative="0.92" departed="0" arrived="27" entered="27" left="0" laneChangedFrom="0" laneChangedTo="0"/>
        <edge id="E18" sampledSeconds="992.56" traveltime="24.75" overlapTraveltime="26.24" density="82.66" laneDensity="20.66" occupancy="10.00" waitingTime="590.00" timeLoss="803.71" speed="2.60" speedRelative="0.19" departed="0" arrived="0" entered="38" left="36" laneChangedFrom="31" laneChangedTo="31"/>
        <edge id="E19" sampledSeconds="378.67" traveltime="10.41" overlapTraveltime="12.06" density="31.53" laneDensity="7.88" occupancy="3.67" waitingTime="126.00" timeLoss="222.40" speed="5.65" speedRelative="0.41" departed="0" arrived="0" entered="33" left="31" laneChangedFrom="16" laneChangedTo="16"/>
        <edge id="E2" sampledSeconds="608.41" traveltime="16.84" overlapTraveltime="17.94" density="50.67" laneDensity="12.67" occupancy="6.09" waitingTime="337.00" timeLoss="434.58" speed="3.80" speedRelative="0.27" departed="0" arrived="0" entered="34" left="33" laneChangedFrom="12" laneChangedTo="12"/>
        <edge id="E20" sampledSeconds="697.63" traveltime="14.76" overlapTraveltime="15.96" density="58.10" laneDensity="14.52" occupancy="6.93" waitingTime="284.00" timeLoss="481.81" speed="4.27" speedRelative="0.31" departed="0" arrived="0" entered="44" left="42" laneChangedFrom="31" laneChangedTo="31"/>
        <edge id="E21" sampledSeconds="461.23" traveltime="13.09" overlapTraveltime="13.77" density="38.41" laneDensity="9.60" occupancy="4.57" waitingTime="162.00" timeLoss="296.21" speed="4.95" speedRelative="0.36" departed="0" arrived="0" entered="35" left="33" laneChangedFrom="27" laneChangedTo="27"/>
        <edge id="E22" sampledSeconds="239.19" traveltime="6.83" overlapTraveltime="7.21" density="15.43" laneDensity="3.86" occupancy="1.81" waitingTime="0.00" timeLoss="31.08" speed="12.01" speedRelative="0.86" departed="0" arrived="33" entered="35" left="0" laneChangedFrom="0" laneChangedTo="0"/>
        <edge id="E23" sampledSeconds="215.36" traveltime="6.45" overlapTraveltime="6.82" density="13.89" laneDensity="3.47" occupancy="1.63" waitingTime="0.00" timeLoss="24.92" speed="12.70" speedRelative="0.91" departed="0" arrived="30" entered="33" left="0" laneChangedFrom="0" laneChangedTo="0"/>
        <edge id="E3" sampledSeconds="163.07" traveltime="6.81" overlapTraveltime="7.21" density="10.52" laneDensity="2.63" occupancy="1.24" waitingTime="0.00" timeLoss="17.76" speed="12.01" speedRelative="0.86" departed="0" arrived="21" entered="25" left="0" laneChangedFrom="0" laneChangedTo="0"/>
        <edge id="E4" sampledSeconds="832.30" traveltime="20.78" overlapTraveltime="22.52" density="69.31" laneDensity="17.33" occupancy="8.35" waitingTime="421.00" timeLoss="651.91" speed="3.03" speedRelative="0.22" departed="0" arrived="0" entered="41" left="32" laneChangedFrom="36" laneChangedTo="36"/>
        <edge id="E5" sampledSeconds="101.53" traveltime="6.33" overlapTraveltime="6.71" density="6.55" laneDensity="1.64" occupancy="0.78" waitingTime="0.00" timeLoss="7.20" speed="12.91" speedRelative="0.93" departed="0" arrived="14" entered="16" left="0" laneChangedFrom="0" laneChangedTo="0"/>
        <edge id="E6" sampledSeconds="256.24" traveltime="6.69" overlapTraveltime="7.07" density="16.53" laneDensity="4.13" occupancy="1.94" waitingTime="0.00" timeLoss="30.04" speed="12.25" speedRelative="0.88" departed="0" arrived="36" entered="38" left="0" laneChangedFrom="0" laneChangedTo="0"/>
        <edge id="E7" sampledSeconds="157.56" traveltime="6.46" overlapTraveltime="6.85" density="10.16" laneDensity="2.54" occupancy="1.20" waitingTime="0.00" timeLoss="13.63" speed="12.64" speedRelative="0.91" departed="0" arrived="22" entered="24" left="0" laneChangedFrom="0" laneChangedTo="0"/>
        <edge id="E8" sampledSeconds="1069.63" traveltime="21.82" overlapTraveltime="23.55" density="89.08" laneDensity="22.27" occupancy="10.71" waitingTime="577.00" timeLoss="845.85" speed="2.90" speedRelative="0.21" departed="0" arrived="0" entered="50" left="41" laneChangedFrom="41" laneChangedTo="41"/>
        <edge id="E9" sampledSeconds="193.47" traveltime="6.69" overlapTraveltime="7.07" density="12.48" laneDensity="3.12" occupancy="1.47" waitingTime="0.00" timeLoss="25.17" speed="12.24" speedRelative="0.88" departed="0" arrived="27" entered="29" left="0" laneChangedFrom="0" laneChangedTo="0"/>
    </interval>
    <interval begin="0.00" end="190.00" id="AllData">
        <edge id="-E0" sampledSeconds="514.27" traveltime="12.76" overlapTraveltime="13.90" density="42.83" laneDensity="10.71" occupancy="5.07" waitingTime="155.00" timeLoss="325.15" speed="4.91" speedRelative="0.35" departed="0" arrived="0" entered="37" left="37" laneChangedFrom="36" laneChangedTo="36"/>
        <edge id="-E1" sampledSeconds="695.56" traveltime="24.82" overlapTraveltime="25.83" density="57.92" laneDensity="14.48" occupancy="7.05" waitingTime="443.00" timeLoss="555.14" speed="2.64" speedRelative="0.19" departed="0" arrived="0" entered="30" left="23" laneChangedFrom="18" laneChangedTo="18"/>
        <edge id="-E10" sampledSeconds="1396.14" traveltime="40.78" overlapTraveltime="41.98" density="116.27" laneDensity="29.07" occupancy="14.25" waitingTime="966.00" timeLoss="1229.89" speed="1.62" speedRelative="0.12" departed="0" arrived="0" entered="39" left="29" laneChangedFrom="29" laneChangedTo="29"/>
        <edge id="-E11" sampledSeconds="753.78" traveltime="23.19" overlapTraveltime="25.03" density="62.77" laneDensity="15.69" occupancy="7.59" waitingTime="451.00" timeLoss="600.44" speed="2.72" speedRelative="0.20" departed="0" arrived="0" entered="34" left="27" laneChangedFrom="22" laneChangedTo="22"/>
        <edge id="-E12" sampledSeconds="927.08" traveltime="19.92" overlapTraveltime="21.26" density="77.21" laneDensity="19.30" occupancy="9.28" waitingTime="503.00" timeLoss="704.81" speed="3.21" speedRelative="0.23" departed="0" arrived="0" entered="45" left="42" laneChangedFrom="27" laneChangedTo="27"/>
        <edge id="-E13" sampledSeconds="2314.76" traveltime="39.60" overlapTraveltime="41.05" density="149.30" laneDensity="37.33" occupancy="18.41" waitingTime="1303.00" timeLoss="1955.37" speed="2.11" speedRelative="0.15" departed="63" arrived="0" entered="0" left="55" laneChangedFrom="76" laneChangedTo="76"/>
        <edge id="-E14" sampledSeconds="1666.47" traveltime="42.55" overlapTraveltime="43.35" density="107.49" laneDensity="26.87" occupancy="13.33" waitingTime="1034.00" timeLoss="1417.24" speed="2.00" speedRelative="0.14" departed="42" arrived="0" entered="0" left="38" laneChangedFrom="60" laneChangedTo="60"/>
        <edge id="-E15" sampledSeconds="3242.66" traveltime="64.63" overlapTraveltime="66.56" density="209.15" laneDensity="52.29" occupancy="25.97" waitingTime="2128.00" timeLoss="2931.50" speed="1.30" speedRelative="0.09" departed="62" arrived="0" entered="0" left="40" laneChangedFrom="78" laneChangedTo="78"/>
        <edge id="-E16" sampledSeconds="1751.09" traveltime="32.48" overlapTraveltime="33.88" density="112.94" laneDensity="28.24" occupancy="13.89" waitingTime="891.00" timeLoss="1422.53" speed="2.56" speedRelative="0.18" departed="56" arrived="0" entered="0" left="51" laneChangedFrom="67" laneChangedTo="67"/>
        <edge id="-E17" sampledSeconds="3628.27" traveltime="70.57" overlapTraveltime="72.73" density="234.02" laneDensity="58.51" occupancy="29.05" waitingTime="2486.00" timeLoss="3302.83" speed="1.19" speedRelative="0.09" departed="68" arrived="0" entered="0" left="42" laneChangedFrom="80" laneChangedTo="80"/>
        <edge id="-E18" sampledSeconds="568.54" traveltime="14.54" overlapTraveltime="15.89" density="47.35" laneDensity="11.84" occupancy="5.64" waitingTime="229.00" timeLoss="387.84" speed="4.29" speedRelative="0.31" departed="0" arrived="0" entered="37" left="33" laneChangedFrom="27" laneChangedTo="27"/>
        <edge id="-E19" sampledSeconds="759.32" traveltime="15.85" overlapTraveltime="16.92" density="63.23" laneDensity="15.81" occupancy="7.56" waitingTime="315.00" timeLoss="530.15" speed="4.03" speedRelative="0.29" departed="0" arrived="0" entered="46" left="43" laneChangedFrom="28" laneChangedTo="28"/>
        <edge id="-E2" sampledSeconds="775.00" traveltime="25.11" overlapTraveltime="26.82" density="64.54" laneDensity="16.13" occupancy="7.79" waitingTime="442.00" timeLoss="627.76" speed="2.54" speedRelative="0.18" departed="0" arrived="0" entered="31" left="27" laneChangedFrom="24" laneChangedTo="24"/>
        <edge id="-E20" sampledSeconds="250.88" traveltime="12.29" overlapTraveltime="12.99" density="20.89" laneDensity="5.22" occupancy="2.49" waitingTime="80.00" timeLoss="152.91" speed="5.25" speedRelative="0.38" departed="0" arrived="0" entered="20" left="19" laneChangedFrom="22" laneChangedTo="22"/>
        <edge id="-E21" sampledSeconds="417.72" traveltime="28.30" overlapTraveltime="30.76" density="34.79" laneDensity="8.70" occupancy="4.18" waitingTime="226.00" timeLoss="350.42" speed="2.22" speedRelative="0.16" departed="0" arrived="0" entered="15" left="13" laneChangedFrom="25" laneChangedTo="25"/>
        <edge id="-E22" sampledSeconds="215.00" traveltime="41.28" overlapTraveltime="45.69" density="13.87" laneDensity="3.47" occupancy="1.67" waitingTime="127.00" timeLoss="177.69" speed="1.90" speedRelative="0.14" departed="5" arrived="0" entered="0" left="5" laneChangedFrom="5" laneChangedTo="5"/>
        <edge id="-E23" sampledSeconds="3312.91" traveltime="75.60" overlapTraveltime="77.96" density="213.68" laneDensity="53.42" occupancy="26.48" waitingTime="2158.00" timeLoss="3045.49" speed="1.11" speedRelative="0.08" departed="56" arrived="0" entered="0" left="39" laneChangedFrom="66" laneChangedTo="66"/>
        <edge id="-E3" sampledSeconds="2816.93" traveltime="46.88" overlapTraveltime="47.78" density="181.69" laneDensity="45.42" occupancy="22.60" waitingTime="1682.00" timeLoss="2442.46" speed="1.81" speedRelative="0.13" departed="66" arrived="0" entered="0" left="54" laneChangedFrom="84" laneChangedTo="84"/>
        <edge id="-E4" sampledSeconds="551.22" traveltime="18.41" overlapTraveltime="20.20" density="45.90" laneDensity="11.48" occupancy="5.48" waitingTime="323.00" timeLoss="412.38" speed="3.38" speedRelative="0.24" departed="0" arrived="0" entered="28" left="26" laneChangedFrom="10" laneChangedTo="10"/>
        <edge id="-E5" sampledSeconds="3637.50" traveltime="63.17" overlapTraveltime="64.89" density="234.62" laneDensity="58.65" occupancy="29.09" waitingTime="2444.00" timeLoss="3285.64" speed="1.33" speedRelative="0.10" departed="71" arrived="0" entered="0" left="51" laneChangedFrom="70" laneChangedTo="70"/>
        <edge id="-E6" sampledSeconds="2416.11" traveltime="86.89" overlapTraveltime="90.89" density="155.84" laneDensity="38.96" occupancy="19.28" waitingTime="1779.00" timeLoss="2247.24" speed="0.95" speedRelative="0.07" departed="35" arrived="0" entered="0" left="21" laneChangedFrom="50" laneChangedTo="50"/>
        <edge id="-E7" sampledSeconds="2774.27" traveltime="52.50" overlapTraveltime="53.85" density="178.94" laneDensity="44.73" occupancy="22.20" waitingTime="1615.00" timeLoss="2439.15" speed="1.61" speedRelative="0.12" departed="63" arrived="0" entered="0" left="44" laneChangedFrom="95" laneChangedTo="95"/>
        <edge id="-E8" sampledSeconds="441.46" traveltime="14.93" overlapTraveltime="16.37" density="36.76" laneDensity="9.19" occupancy="4.38" waitingTime="225.00" timeLoss="307.06" speed="4.17" speedRelative="0.30" departed="0" arrived="0" entered="29" left="25" laneChangedFrom="11" laneChangedTo="11"/>
        <edge id="-E9" sampledSeconds="2082.28" traveltime="39.01" overlapTraveltime="40.58" density="134.31" laneDensity="33.58" occupancy="16.56" waitingTime="1180.00" timeLoss="1763.50" speed="2.13" speedRelative="0.15" departed="56" arrived="0" entered="0" left="50" laneChangedFrom="78" laneChangedTo="78"/>
        <edge id="E0" sampledSeconds="386.83" traveltime="13.41" overlapTraveltime="14.29" density="32.21" laneDensity="8.05" occupancy="3.83" waitingTime="164.00" timeLoss="244.95" speed="4.77" speedRelative="0.34" departed="0" arrived="0" entered="28" left="27" laneChangedFrom="9" laneChangedTo="9"/>
        <edge id="E1" sampledSeconds="1223.65" traveltime="24.32" overlapTraveltime="25.86" density="101.90" laneDensity="25.48" occupancy="12.42" waitingTime="754.00" timeLoss="984.74" speed="2.64" speedRelative="0.19" departed="0" arrived="0" entered="49" left="45" laneChangedFrom="25" laneChangedTo="25"/>
        <edge id="E10" sampledSeconds="612.56" traveltime="24.03" overlapTraveltime="26.55" density="51.01" laneDensity="12.75" occupancy="6.14" waitingTime="380.00" timeLoss="495.43" speed="2.57" speedRelative="0.18" departed="0" arrived="0" entered="24" left="21" laneChangedFrom="10" laneChangedTo="10"/>
        <edge id="E11" sampledSeconds="454.27" traveltime="12.78" overlapTraveltime="13.64" density="37.83" laneDensity="9.46" occupancy="4.58" waitingTime="181.00" timeLoss="292.83" speed="5.00" speedRelative="0.36" departed="0" arrived="0" entered="36" left="29" laneChangedFrom="20" laneChangedTo="20"/>
        <edge id="E12" sampledSeconds="623.09" traveltime="17.76" overlapTraveltime="18.93" density="51.89" laneDensity="12.97" occupancy="6.26" waitingTime="341.00" timeLoss="456.93" speed="3.60" speedRelative="0.26" departed="0" arrived="0" entered="37" left="29" laneChangedFrom="21" laneChangedTo="21"/>
        <edge id="E13" sampledSeconds="168.46" traveltime="6.42" overlapTraveltime="6.80" density="10.87" laneDensity="2.72" occupancy="1.28" waitingTime="0.00" timeLoss="14.88" speed="12.74" speedRelative="0.92" departed="0" arrived="25" entered="25" left="0" laneChangedFrom="0" laneChangedTo="0"/>
        <edge id="E14" sampledSeconds="261.98" traveltime="6.79" overlapTraveltime="7.18" density="16.90" laneDensity="4.22" occupancy="1.99" waitingTime="0.00" timeLoss="30.58" speed="12.06" speedRelative="0.87" departed="0" arrived="35" entered="39" left="0" laneChangedFrom="0" laneChangedTo="0"/>
        <edge id="E15" sampledSeconds="154.79" traveltime="6.62" overlapTraveltime="6.99" density="9.98" laneDensity="2.50" occupancy="1.16" waitingTime="0.00" timeLoss="22.84" speed="12.39" speedRelative="0.89" departed="0" arrived="21" entered="24" left="0" laneChangedFrom="0" laneChangedTo="0"/>
        <edge id="E16" sampledSeconds="204.88" traveltime="6.77" overlapTraveltime="7.15" density="13.21" laneDensity="3.30" occupancy="1.55" waitingTime="0.00" timeLoss="25.17" speed="12.10" speedRelative="0.87" departed="0" arrived="29" entered="29" left="0" laneChangedFrom="0" laneChangedTo="0"/>
        <edge id="E17" sampledSeconds="180.87" traveltime="6.43" overlapTraveltime="6.81" density="11.67" laneDensity="2.92" occupancy="1.38" waitingTime="0.00" timeLoss="17.03" speed="12.71" speedRelative="0.92" departed="0" arrived="27" entered="27" left="0" laneChangedFrom="0" laneChangedTo="0"/>
        <edge id="E18" sampledSeconds="992.56" traveltime="24.75" overlapTraveltime="26.24" density="82.66" laneDensity="20.66" occupancy="10.00" waitingTime="590.00" timeLoss="803.71" speed="2.60" speedRelative="0.19" departed="0" arrived="0" entered="38" left="36" laneChangedFrom="31" laneChangedTo="31"/>
        <edge id="E19" sampledSeconds="378.67" traveltime="10.41" overlapTraveltime="12.06" density="31.53" laneDensity="7.88" occupancy="3.67" waitingTime="126.00" timeLoss="222.40" speed="5.65" speedRelative="0.41" departed="0" arrived="0" entered="33" left="31" laneChangedFrom="16" laneChangedTo="16"/>
        <edge id="E2" sampledSeconds="608.41" traveltime="16.84" overlapTraveltime="17.94" density="50.67" laneDensity="12.67" occupancy="6.09" waitingTime="337.00" timeLoss="434.58" speed="3.80" speedRelative="0.27" departed="0" arrived="0" entered="34" left="33" laneChangedFrom="12" laneChangedTo="12"/>
        <edge id="E20" sampledSeconds="697.63" traveltime="14.76" overlapTraveltime="15.96" density="58.10" laneDensity="14.52" occupancy="6.93" waitingTime="284.00" timeLoss="481.81" speed="4.27" speedRelative="0.31" departed="0" arrived="0" entered="44" left="42" laneChangedFrom="31" laneChangedTo="31"/>
        <edge id="E21" sampledSeconds="461.23" traveltime="13.09" overlapTraveltime="13.77" density="38.41" laneDensity="9.60" occupancy="4.57" waitingTime="162.00" timeLoss="296.21" speed="4.95" speedRelative="0.36" departed="0" arrived="0" entered="35" left="33" laneChangedFrom="27" laneChangedTo="27"/>
        <edge id="E22" sampledSeconds="239.19" traveltime="6.83" overlapTraveltime="7.21" density="15.43" laneDensity="3.86" occupancy="1.81" waitingTime="0.00" timeLoss="31.08" speed="12.01" speedRelative="0.86" departed="0" arrived="33" entered="35" left="0" laneChangedFrom="0" laneChangedTo="0"/>
        <edge id="E23" sampledSeconds="215.36" traveltime="6.45" overlapTraveltime="6.82" density="13.89" laneDensity="3.47" occupancy="1.63" waitingTime="0.00" timeLoss="24.92" speed="12.70" speedRelative="0.91" departed="0" arrived="30" entered="33" left="0" laneChangedFrom="0" laneChangedTo="0"/>