<?xml version="1.0" encoding="UTF-8"?>

<!-- generated on 2022-11-22 15:19:33 by Eclipse SUMO GUI Version 1.14.1
<configuration xmlns:xsi="http://www.w3.org/2001/XMLSchema-instance" xsi:noNamespaceSchemaLocation="http://sumo.dlr.de/xsd/sumoConfiguration.xsd">

    <input>
        <net-file value="C:\Users\connp\OneDrive\Documents\_Pitt\Traffic_Capstone\team-project\3x3Grid\network.net.xml"/>
        <route-files value="C:\Users\connp\OneDrive\Documents\_Pitt\Traffic_Capstone\team-project\3x3Grid\routes_0.01.rou.xml"/>
        <additional-files value="C:\Users\connp\OneDrive\Documents\_Pitt\Traffic_Capstone\team-project\3x3Grid\edge_0.01.add.xml"/>
    </input>

    <time>
        <begin value="0"/>
        <end value="1000"/>
    </time>

</configuration>
-->

<meandata xmlns:xsi="http://www.w3.org/2001/XMLSchema-instance" xsi:noNamespaceSchemaLocation="http://sumo.dlr.de/xsd/meandata_file.xsd">
    <interval begin="0.00" end="306.00" id="EMSData">
        <edge id="-E16" sampledSeconds="3.00" traveltime="22.46" overlapTraveltime="24.21" density="0.12" laneDensity="0.03" occupancy="0.02" waitingTime="0.00" timeLoss="2.47" speed="3.70" speedRelative="0.27" departed="1" arrived="0" entered="0" left="0" laneChangedFrom="0" laneChangedTo="0"/>
        <edge id="-E20" sampledSeconds="5.47" traveltime="4.65" overlapTraveltime="5.47" density="0.27" laneDensity="0.07" occupancy="0.04" waitingTime="0.00" timeLoss="1.53" speed="13.33" speedRelative="0.96" departed="0" arrived="0" entered="1" left="1" laneChangedFrom="2" laneChangedTo="2"/>
        <edge id="-E21" sampledSeconds="12.36" traveltime="7.60" overlapTraveltime="8.61" density="0.61" laneDensity="0.15" occupancy="0.09" waitingTime="0.00" timeLoss="7.34" speed="8.47" speedRelative="0.61" departed="0" arrived="0" entered="1" left="1" laneChangedFrom="2" laneChangedTo="2"/>
        <edge id="-E3" sampledSeconds="8.57" traveltime="8.92" overlapTraveltime="9.25" density="0.34" laneDensity="0.08" occupancy="0.05" waitingTime="0.00" timeLoss="4.58" speed="9.70" speedRelative="0.70" departed="1" arrived="0" entered="0" left="1" laneChangedFrom="1" laneChangedTo="1"/>
        <edge id="-E9" sampledSeconds="9.00" traveltime="9.36" overlapTraveltime="9.71" density="0.35" laneDensity="0.09" occupancy="0.06" waitingTime="0.00" timeLoss="5.01" speed="9.24" speedRelative="0.66" departed="1" arrived="0" entered="0" left="1" laneChangedFrom="2" laneChangedTo="2"/>
        <edge id="E1" sampledSeconds="3.63" traveltime="3.31" overlapTraveltime="3.63" density="0.18" laneDensity="0.04" occupancy="0.03" waitingTime="0.00" timeLoss="0.13" speed="20.09" speedRelative="1.45" departed="0" arrived="0" entered="1" left="1" laneChangedFrom="0" laneChangedTo="0"/>
        <edge id="E10" sampledSeconds="17.27" traveltime="6.96" overlapTraveltime="17.27" density="0.85" laneDensity="0.21" occupancy="0.08" waitingTime="7.00" timeLoss="13.77" speed="4.22" speedRelative="0.30" departed="0" arrived="0" entered="1" left="1" laneChangedFrom="1" laneChangedTo="1"/>
        <edge id="E11" sampledSeconds="3.59" traveltime="3.27" overlapTraveltime="3.59" density="0.18" laneDensity="0.04" occupancy="0.03" waitingTime="0.00" timeLoss="0.09" speed="20.31" speedRelative="1.46" departed="0" arrived="0" entered="1" left="1" laneChangedFrom="0" laneChangedTo="0"/>
        <edge id="E14" sampledSeconds="4.16" traveltime="4.16" overlapTraveltime="4.48" density="0.16" laneDensity="0.04" occupancy="0.03" waitingTime="0.00" timeLoss="0.16" speed="20.02" speedRelative="1.44" departed="0" arrived="1" entered="1" left="0" laneChangedFrom="0" laneChangedTo="0"/>
        <edge id="E15" sampledSeconds="5.13" traveltime="5.09" overlapTraveltime="5.48" density="0.20" laneDensity="0.05" occupancy="0.03" waitingTime="0.00" timeLoss="1.10" speed="16.37" speedRelative="1.18" departed="0" arrived="1" entered="1" left="0" laneChangedFrom="0" laneChangedTo="0"/>
        <edge id="E8" sampledSeconds="3.86" traveltime="3.47" overlapTraveltime="3.86" density="0.19" laneDensity="0.05" occupancy="0.03" waitingTime="0.00" timeLoss="0.13" speed="18.91" speedRelative="1.36" departed="0" arrived="0" entered="1" left="1" laneChangedFrom="0" laneChangedTo="0"/>
    </interval>
    <interval begin="0.00" end="306.00" id="OtherData">
        <edge id="-E0" sampledSeconds="517.33" traveltime="17.61" overlapTraveltime="18.73" density="25.46" laneDensity="6.37" occupancy="3.07" waitingTime="274.00" timeLoss="374.72" speed="3.81" speedRelative="0.27" departed="0" arrived="0" entered="30" left="21" laneChangedFrom="42" laneChangedTo="42"/>
        <edge id="-E1" sampledSeconds="421.53" traveltime="16.08" overlapTraveltime="16.86" density="20.75" laneDensity="5.19" occupancy="2.49" waitingTime="239.00" timeLoss="292.57" speed="4.23" speedRelative="0.30" departed="0" arrived="0" entered="25" left="25" laneChangedFrom="9" laneChangedTo="9"/>
        <edge id="-E10" sampledSeconds="465.89" traveltime="17.16" overlapTraveltime="18.95" density="22.93" laneDensity="5.73" occupancy="2.64" waitingTime="261.00" timeLoss="335.22" speed="3.77" speedRelative="0.27" departed="0" arrived="0" entered="25" left="24" laneChangedFrom="11" laneChangedTo="11"/>
        <edge id="-E11" sampledSeconds="699.46" traveltime="20.78" overlapTraveltime="21.86" density="34.42" laneDensity="8.61" occupancy="4.16" waitingTime="417.00" timeLoss="535.76" speed="3.27" speedRelative="0.24" departed="0" arrived="0" entered="32" left="32" laneChangedFrom="28" laneChangedTo="28"/>
        <edge id="-E12" sampledSeconds="816.27" traveltime="21.14" overlapTraveltime="22.72" density="40.17" laneDensity="10.04" occupancy="4.87" waitingTime="447.00" timeLoss="634.88" speed="3.14" speedRelative="0.23" departed="0" arrived="0" entered="36" left="36" laneChangedFrom="25" laneChangedTo="25"/>
        <edge id="-E13" sampledSeconds="976.12" traveltime="29.56" overlapTraveltime="30.46" density="38.34" laneDensity="9.59" occupancy="4.72" waitingTime="537.00" timeLoss="768.45" speed="2.90" speedRelative="0.21" departed="35" arrived="0" entered="0" left="34" laneChangedFrom="32" laneChangedTo="32"/>
        <edge id="-E14" sampledSeconds="448.28" traveltime="18.88" overlapTraveltime="20.12" density="17.61" laneDensity="4.40" occupancy="2.11" waitingTime="194.00" timeLoss="309.31" speed="4.38" speedRelative="0.32" departed="24" arrived="0" entered="0" left="23" laneChangedFrom="36" laneChangedTo="36"/>
        <edge id="-E15" sampledSeconds="1236.60" traveltime="36.46" overlapTraveltime="38.28" density="48.57" laneDensity="12.14" occupancy="5.99" waitingTime="746.00" timeLoss="1026.66" speed="2.30" speedRelative="0.17" departed="35" arrived="0" entered="0" left="32" laneChangedFrom="74" laneChangedTo="74"/>
        <edge id="-E16" sampledSeconds="786.33" traveltime="23.41" overlapTraveltime="24.45" density="30.89" laneDensity="7.72" occupancy="3.79" waitingTime="369.00" timeLoss="569.69" speed="3.61" speedRelative="0.26" departed="36" arrived="0" entered="0" left="30" laneChangedFrom="58" laneChangedTo="58"/>
        <edge id="-E17" sampledSeconds="821.00" traveltime="21.31" overlapTraveltime="22.81" density="32.25" laneDensity="8.06" occupancy="3.96" waitingTime="341.00" timeLoss="590.14" speed="3.87" speedRelative="0.28" departed="40" arrived="0" entered="0" left="32" laneChangedFrom="45" laneChangedTo="45"/>
        <edge id="-E18" sampledSeconds="198.36" traveltime="10.86" overlapTraveltime="12.31" density="9.76" laneDensity="2.44" occupancy="1.13" waitingTime="68.00" timeLoss="113.10" speed="5.80" speedRelative="0.42" departed="0" arrived="0" entered="17" left="14" laneChangedFrom="11" laneChangedTo="11"/>
        <edge id="-E19" sampledSeconds="652.83" traveltime="21.92" overlapTraveltime="22.98" density="32.13" laneDensity="8.03" occupancy="3.90" waitingTime="407.00" timeLoss="504.20" speed="3.11" speedRelative="0.22" departed="0" arrived="0" entered="30" left="23" laneChangedFrom="16" laneChangedTo="16"/>
        <edge id="-E2" sampledSeconds="804.32" traveltime="27.39" overlapTraveltime="28.49" density="39.59" laneDensity="9.90" occupancy="4.83" waitingTime="544.00" timeLoss="656.18" speed="2.51" speedRelative="0.18" departed="0" arrived="0" entered="30" left="23" laneChangedFrom="20" laneChangedTo="20"/>
        <edge id="-E20" sampledSeconds="307.88" traveltime="21.61" overlapTraveltime="22.71" density="15.15" laneDensity="3.79" occupancy="1.84" waitingTime="187.00" timeLoss="237.50" speed="3.14" speedRelative="0.23" departed="0" arrived="0" entered="14" left="10" laneChangedFrom="14" laneChangedTo="14"/>
        <edge id="-E21" sampledSeconds="154.13" traveltime="21.66" overlapTraveltime="23.20" density="7.59" laneDensity="1.90" occupancy="0.92" waitingTime="93.00" timeLoss="120.14" speed="3.08" speedRelative="0.22" departed="0" arrived="0" entered="7" left="4" laneChangedFrom="15" laneChangedTo="15"/>
        <edge id="-E22" sampledSeconds="228.16" traveltime="27.52" overlapTraveltime="30.27" density="8.96" laneDensity="2.24" occupancy="1.08" waitingTime="115.00" timeLoss="173.05" speed="2.91" speedRelative="0.21" departed="8" arrived="0" entered="0" left="8" laneChangedFrom="24" laneChangedTo="24"/>
        <edge id="-E23" sampledSeconds="774.64" traveltime="24.25" overlapTraveltime="25.80" density="30.43" laneDensity="7.61" occupancy="3.75" waitingTime="370.00" timeLoss="587.55" speed="3.42" speedRelative="0.25" departed="33" arrived="0" entered="0" left="26" laneChangedFrom="75" laneChangedTo="75"/>
        <edge id="-E3" sampledSeconds="748.48" traveltime="28.59" overlapTraveltime="29.42" density="29.40" laneDensity="7.35" occupancy="3.62" waitingTime="395.00" timeLoss="578.14" speed="3.00" speedRelative="0.22" departed="27" arrived="0" entered="0" left="27" laneChangedFrom="35" laneChangedTo="35"/>
        <edge id="-E4" sampledSeconds="362.71" traveltime="18.19" overlapTraveltime="19.09" density="17.85" laneDensity="4.46" occupancy="2.15" waitingTime="208.00" timeLoss="258.15" speed="3.74" speedRelative="0.27" departed="0" arrived="0" entered="19" left="19" laneChangedFrom="3" laneChangedTo="3"/>
        <edge id="-E5" sampledSeconds="1115.21" traveltime="35.72" overlapTraveltime="36.71" density="43.80" laneDensity="10.95" occupancy="5.40" waitingTime="660.00" timeLoss="908.69" speed="2.40" speedRelative="0.17" departed="34" arrived="0" entered="0" left="31" laneChangedFrom="25" laneChangedTo="25"/>
        <edge id="-E6" sampledSeconds="969.69" traveltime="31.89" overlapTraveltime="33.40" density="38.09" laneDensity="9.52" occupancy="4.69" waitingTime="546.00" timeLoss="781.94" speed="2.64" speedRelative="0.19" departed="33" arrived="0" entered="0" left="26" laneChangedFrom="74" laneChangedTo="74"/>
        <edge id="-E7" sampledSeconds="885.75" traveltime="37.85" overlapTraveltime="39.10" density="34.79" laneDensity="8.70" occupancy="4.31" waitingTime="579.00" timeLoss="736.56" speed="2.26" speedRelative="0.16" departed="25" arrived="0" entered="0" left="18" laneChangedFrom="26" laneChangedTo="26"/>
        <edge id="-E8" sampledSeconds="244.96" traveltime="7.98" overlapTraveltime="8.75" density="12.06" laneDensity="3.01" occupancy="1.41" waitingTime="50.00" timeLoss="98.43" speed="8.16" speedRelative="0.59" departed="0" arrived="0" entered="28" left="28" laneChangedFrom="4" laneChangedTo="4"/>
        <edge id="-E9" sampledSeconds="766.58" traveltime="28.19" overlapTraveltime="29.14" density="30.11" laneDensity="7.53" occupancy="3.70" waitingTime="416.00" timeLoss="598.75" speed="3.03" speedRelative="0.22" departed="29" arrived="0" entered="0" left="27" laneChangedFrom="58" laneChangedTo="58"/>
        <edge id="E0" sampledSeconds="417.71" traveltime="15.51" overlapTraveltime="16.88" density="20.56" laneDensity="5.14" occupancy="2.47" waitingTime="209.00" timeLoss="287.46" speed="4.23" speedRelative="0.30" departed="0" arrived="0" entered="25" left="22" laneChangedFrom="9" laneChangedTo="9"/>
        <edge id="E1" sampledSeconds="473.84" traveltime="17.19" overlapTraveltime="18.22" density="23.32" laneDensity="5.83" occupancy="2.80" waitingTime="253.00" timeLoss="331.39" speed="3.92" speedRelative="0.28" departed="0" arrived="0" entered="26" left="26" laneChangedFrom="15" laneChangedTo="15"/>
        <edge id="E10" sampledSeconds="396.08" traveltime="14.29" overlapTraveltime="15.90" density="19.49" laneDensity="4.87" occupancy="2.32" waitingTime="177.00" timeLoss="257.01" speed="4.49" speedRelative="0.32" departed="0" arrived="0" entered="25" left="24" laneChangedFrom="10" laneChangedTo="10"/>
        <edge id="E11" sampledSeconds="381.65" traveltime="15.63" overlapTraveltime="16.59" density="18.78" laneDensity="4.70" occupancy="2.25" waitingTime="181.00" timeLoss="256.30" speed="4.30" speedRelative="0.31" departed="0" arrived="0" entered="23" left="23" laneChangedFrom="21" laneChangedTo="21"/>
        <edge id="E12" sampledSeconds="327.34" traveltime="11.81" overlapTraveltime="12.59" density="16.11" laneDensity="4.03" occupancy="1.92" waitingTime="132.00" timeLoss="180.40" speed="5.67" speedRelative="0.41" departed="0" arrived="0" entered="26" left="26" laneChangedFrom="15" laneChangedTo="15"/>
        <edge id="E13" sampledSeconds="155.73" traveltime="6.72" overlapTraveltime="7.11" density="6.12" laneDensity="1.53" occupancy="0.72" waitingTime="0.00" timeLoss="10.93" speed="12.40" speedRelative="0.89" departed="0" arrived="22" entered="22" left="0" laneChangedFrom="0" laneChangedTo="0"/>
        <edge id="E14" sampledSeconds="146.78" traveltime="6.67" overlapTraveltime="7.05" density="5.77" laneDensity="1.44" occupancy="0.68" waitingTime="0.00" timeLoss="15.44" speed="12.51" speedRelative="0.90" departed="0" arrived="21" entered="21" left="0" laneChangedFrom="0" laneChangedTo="0"/>
        <edge id="E15" sampledSeconds="141.65" traveltime="6.77" overlapTraveltime="7.14" density="5.56" laneDensity="1.39" occupancy="0.65" waitingTime="0.00" timeLoss="18.32" speed="12.36" speedRelative="0.89" departed="0" arrived="20" entered="20" left="0" laneChangedFrom="1" laneChangedTo="1"/>
        <edge id="E16" sampledSeconds="149.35" traveltime="6.87" overlapTraveltime="7.25" density="5.87" laneDensity="1.47" occupancy="0.69" waitingTime="0.00" timeLoss="18.25" speed="12.17" speedRelative="0.88" departed="0" arrived="21" entered="21" left="0" laneChangedFrom="0" laneChangedTo="0"/>
        <edge id="E17" sampledSeconds="104.79" traveltime="6.68" overlapTraveltime="7.06" density="4.12" laneDensity="1.03" occupancy="0.49" waitingTime="0.00" timeLoss="9.00" speed="12.49" speedRelative="0.90" departed="0" arrived="15" entered="15" left="0" laneChangedFrom="0" laneChangedTo="0"/>
        <edge id="E18" sampledSeconds="598.84" traveltime="14.97" overlapTraveltime="15.83" density="29.47" laneDensity="7.37" occupancy="3.55" waitingTime="296.00" timeLoss="396.83" speed="4.51" speedRelative="0.32" departed="0" arrived="0" entered="39" left="33" laneChangedFrom="29" laneChangedTo="29"/>
        <edge id="E19" sampledSeconds="486.21" traveltime="14.37" overlapTraveltime="15.55" density="23.93" laneDensity="5.98" occupancy="2.87" waitingTime="251.00" timeLoss="317.20" speed="4.59" speedRelative="0.33" departed="0" arrived="0" entered="32" left="27" laneChangedFrom="20" laneChangedTo="20"/>
        <edge id="E2" sampledSeconds="295.71" traveltime="14.23" overlapTraveltime="15.04" density="14.55" laneDensity="3.64" occupancy="1.75" waitingTime="153.00" timeLoss="195.09" speed="4.75" speedRelative="0.34" departed="0" arrived="0" entered="20" left="16" laneChangedFrom="8" laneChangedTo="8"/>
        <edge id="E20" sampledSeconds="612.41" traveltime="22.75" overlapTraveltime="23.78" density="30.14" laneDensity="7.54" occupancy="3.65" waitingTime="359.00" timeLoss="474.32" speed="3.00" speedRelative="0.22" departed="0" arrived="0" entered="26" left="25" laneChangedFrom="24" laneChangedTo="24"/>
        <edge id="E21" sampledSeconds="418.60" traveltime="16.74" overlapTraveltime="17.69" density="20.60" laneDensity="5.15" occupancy="2.49" waitingTime="230.00" timeLoss="294.60" speed="4.04" speedRelative="0.29" departed="0" arrived="0" entered="25" left="18" laneChangedFrom="30" laneChangedTo="30"/>
        <edge id="E22" sampledSeconds="234.54" traveltime="7.02" overlapTraveltime="7.40" density="9.21" laneDensity="2.30" occupancy="1.07" waitingTime="0.00" timeLoss="36.39" speed="11.91" speedRelative="0.86" departed="0" arrived="32" entered="32" left="0" laneChangedFrom="2" laneChangedTo="2"/>
        <edge id="E23" sampledSeconds="180.55" traveltime="6.94" overlapTraveltime="7.33" density="7.09" laneDensity="1.77" occupancy="0.83" waitingTime="0.00" timeLoss="21.97" speed="12.03" speedRelative="0.87" departed="0" arrived="25" entered="25" left="0" laneChangedFrom="0" laneChangedTo="0"/>
        <edge id="E3" sampledSeconds="172.59" traveltime="6.58" overlapTraveltime="6.96" density="6.78" laneDensity="1.69" occupancy="0.80" waitingTime="0.00" timeLoss="14.00" speed="12.68" speedRelative="0.91" departed="0" arrived="25" entered="25" left="0" laneChangedFrom="1" laneChangedTo="1"/>
        <edge id="E4" sampledSeconds="444.73" traveltime="15.54" overlapTraveltime="16.48" density="21.89" laneDensity="5.47" occupancy="2.63" waitingTime="208.00" timeLoss="299.32" speed="4.33" speedRelative="0.31" departed="0" arrived="0" entered="27" left="27" laneChangedFrom="23" laneChangedTo="23"/>
        <edge id="E5" sampledSeconds="98.57" traveltime="6.26" overlapTraveltime="6.63" density="3.87" laneDensity="0.97" occupancy="0.46" waitingTime="0.00" timeLoss="7.36" speed="13.31" speedRelative="0.96" departed="0" arrived="15" entered="15" left="0" laneChangedFrom="1" laneChangedTo="1"/>
        <edge id="E6" sampledSeconds="150.32" traveltime="7.22" overlapTraveltime="7.62" density="5.90" laneDensity="1.48" occupancy="0.69" waitingTime="0.00" timeLoss="20.90" speed="11.57" speedRelative="0.83" departed="0" arrived="20" entered="20" left="0" laneChangedFrom="0" laneChangedTo="0"/>
        <edge id="E7" sampledSeconds="86.91" traveltime="6.40" overlapTraveltime="6.78" density="3.41" laneDensity="0.85" occupancy="0.40" waitingTime="0.00" timeLoss="8.14" speed="13.02" speedRelative="0.94" departed="0" arrived="13" entered="13" left="0" laneChangedFrom="1" laneChangedTo="1"/>
        <edge id="E8" sampledSeconds="590.21" traveltime="17.27" overlapTraveltime="18.50" density="29.05" laneDensity="7.26" occupancy="3.50" waitingTime="320.00" timeLoss="418.43" speed="3.86" speedRelative="0.28" departed="0" arrived="0" entered="32" left="31" laneChangedFrom="20" laneChangedTo="20"/>
        <edge id="E9" sampledSeconds="129.74" traveltime="6.51" overlapTraveltime="6.88" density="5.10" laneDensity="1.27" occupancy="0.60" waitingTime="0.00" timeLoss="11.77" speed="12.82" speedRelative="0.92" departed="0" arrived="19" entered="19" left="0" laneChangedFrom="0" laneChangedTo="0"/>
    </interval>
    <interval begin="0.00" end="306.00" id="AllData">
        <edge id="-E0" sampledSeconds="517.33" traveltime="17.61" overlapTraveltime="18.73" density="25.46" laneDensity="6.37" occupancy="3.07" waitingTime="274.00" timeLoss="374.72" speed="3.81" speedRelative="0.27" departed="0" arrived="0" entered="30" left="21" laneChangedFrom="42" laneChangedTo="42"/>
        <edge id="-E1" sampledSeconds="421.53" traveltime="16.08" overlapTraveltime="16.86" density="20.75" laneDensity="5.19" occupancy="2.49" waitingTime="239.00" timeLoss="292.57" speed="4.23" speedRelative="0.30" departed="0" arrived="0" entered="25" left="25" laneChangedFrom="9" laneChangedTo="9"/>
        <edge id="-E10" sampledSeconds="465.89" traveltime="17.16" overlapTraveltime="18.95" density="22.93" laneDensity="5.73" occupancy="2.64" waitingTime="261.00" timeLoss="335.22" speed="3.77" speedRelative="0.27" departed="0" arrived="0" entered="25" left="24" laneChangedFrom="11" laneChangedTo="11"/>
        <edge id="-E11" sampledSeconds="699.46" traveltime="20.78" overlapTraveltime="21.86" density="34.42" laneDensity="8.61" occupancy="4.16" waitingTime="417.00" timeLoss="535.76" speed="3.27" speedRelative="0.24" departed="0" arrived="0" entered="32" left="32" laneChangedFrom="28" laneChangedTo="28"/>
        <edge id="-E12" sampledSeconds="816.27" traveltime="21.14" overlapTraveltime="22.72" density="40.17" laneDensity="10.04" occupancy="4.87" waitingTime="447.00" timeLoss="634.88" speed="3.14" speedRelative="0.23" departed="0" arrived="0" entered="36" left="36" laneChangedFrom="25" laneChangedTo="25"/>
        <edge id="-E13" sampledSeconds="976.12" traveltime="29.56" overlapTraveltime="30.46" density="38.34" laneDensity="9.59" occupancy="4.72" waitingTime="537.00" timeLoss="768.45" speed="2.90" speedRelative="0.21" departed="35" arrived="0" entered="0" left="34" laneChangedFrom="32" laneChangedTo="32"/>
        <edge id="-E14" sampledSeconds="448.28" traveltime="18.88" overlapTraveltime="20.12" density="17.61" laneDensity="4.40" occupancy="2.11" waitingTime="194.00" timeLoss="309.31" speed="4.38" speedRelative="0.32" departed="24" arrived="0" entered="0" left="23" laneChangedFrom="36" laneChangedTo="36"/>
        <edge id="-E15" sampledSeconds="1236.60" traveltime="36.46" overlapTraveltime="38.28" density="48.57" laneDensity="12.14" occupancy="5.99" waitingTime="746.00" timeLoss="1026.66" speed="2.30" speedRelative="0.17" departed="35" arrived="0" entered="0" left="32" laneChangedFrom="74" laneChangedTo="74"/>
        <edge id="-E16" sampledSeconds="789.33" traveltime="23.41" overlapTraveltime="24.45" density="31.00" laneDensity="7.75" occupancy="3.81" waitingTime="369.00" timeLoss="572.15" speed="3.61" speedRelative="0.26" departed="37" arrived="0" entered="0" left="30" laneChangedFrom="58" laneChangedTo="58"/>
        <edge id="-E17" sampledSeconds="821.00" traveltime="21.31" overlapTraveltime="22.81" density="32.25" laneDensity="8.06" occupancy="3.96" waitingTime="341.00" timeLoss="590.14" speed="3.87" speedRelative="0.28" departed="40" arrived="0" entered="0" left="32" laneChangedFrom="45" laneChangedTo="45"/>
        <edge id="-E18" sampledSeconds="198.36" traveltime="10.86" overlapTraveltime="12.31" density="9.76" laneDensity="2.44" occupancy="1.13" waitingTime="68.00" timeLoss="113.10" speed="5.80" speedRelative="0.42" departed="0" arrived="0" entered="17" left="14" laneChangedFrom="11" laneChangedTo="11"/>
        <edge id="-E19" sampledSeconds="652.83" traveltime="21.92" overlapTraveltime="22.98" density="32.13" laneDensity="8.03" occupancy="3.90" waitingTime="407.00" timeLoss="504.20" speed="3.11" speedRelative="0.22" departed="0" arrived="0" entered="30" left="23" laneChangedFrom="16" laneChangedTo="16"/>
        <edge id="-E2" sampledSeconds="804.32" traveltime="27.39" overlapTraveltime="28.49" density="39.59" laneDensity="9.90" occupancy="4.83" waitingTime="544.00" timeLoss="656.18" speed="2.51" speedRelative="0.18" departed="0" arrived="0" entered="30" left="23" laneChangedFrom="20" laneChangedTo="20"/>
        <edge id="-E20" sampledSeconds="313.35" traveltime="20.47" overlapTraveltime="21.50" density="15.42" laneDensity="3.86" occupancy="1.88" waitingTime="187.00" timeLoss="239.03" speed="3.32" speedRelative="0.24" departed="0" arrived="0" entered="15" left="11" laneChangedFrom="16" laneChangedTo="16"/>
        <edge id="-E21" sampledSeconds="166.50" traveltime="19.22" overlapTraveltime="20.57" density="8.19" laneDensity="2.05" occupancy="1.01" waitingTime="93.00" timeLoss="127.48" speed="3.48" speedRelative="0.25" departed="0" arrived="0" entered="8" left="5" laneChangedFrom="17" laneChangedTo="17"/>
        <edge id="-E22" sampledSeconds="228.16" traveltime="27.52" overlapTraveltime="30.27" density="8.96" laneDensity="2.24" occupancy="1.08" waitingTime="115.00" timeLoss="173.05" speed="2.91" speedRelative="0.21" departed="8" arrived="0" entered="0" left="8" laneChangedFrom="24" laneChangedTo="24"/>
        <edge id="-E23" sampledSeconds="774.64" traveltime="24.25" overlapTraveltime="25.80" density="30.43" laneDensity="7.61" occupancy="3.75" waitingTime="370.00" timeLoss="587.55" speed="3.42" speedRelative="0.25" departed="33" arrived="0" entered="0" left="26" laneChangedFrom="75" laneChangedTo="75"/>
        <edge id="-E3" sampledSeconds="757.04" traveltime="27.90" overlapTraveltime="28.70" density="29.74" laneDensity="7.43" occupancy="3.67" waitingTime="395.00" timeLoss="582.72" speed="3.07" speedRelative="0.22" departed="28" arrived="0" entered="0" left="28" laneChangedFrom="36" laneChangedTo="36"/>
        <edge id="-E4" sampledSeconds="362.71" traveltime="18.19" overlapTraveltime="19.09" density="17.85" laneDensity="4.46" occupancy="2.15" waitingTime="208.00" timeLoss="258.15" speed="3.74" speedRelative="0.27" departed="0" arrived="0" entered="19" left="19" laneChangedFrom="3" laneChangedTo="3"/>
        <edge id="-E5" sampledSeconds="1115.21" traveltime="35.72" overlapTraveltime="36.71" density="43.80" laneDensity="10.95" occupancy="5.40" waitingTime="660.00" timeLoss="908.69" speed="2.40" speedRelative="0.17" departed="34" arrived="0" entered="0" left="31" laneChangedFrom="25" laneChangedTo="25"/>
        <edge id="-E6" sampledSeconds="969.69" traveltime="31.89" overlapTraveltime="33.40" density="38.09" laneDensity="9.52" occupancy="4.69" waitingTime="546.00" timeLoss="781.94" speed="2.64" speedRelative="0.19" departed="33" arrived="0" entered="0" left="26" laneChangedFrom="74" laneChangedTo="74"/>
        <edge id="-E7" sampledSeconds="885.75" traveltime="37.85" overlapTraveltime="39.10" density="34.79" laneDensity="8.70" occupancy="4.31" waitingTime="579.00" timeLoss="736.56" speed="2.26" speedRelative="0.16" departed="25" arrived="0" entered="0" left="18" laneChangedFrom="26" laneChangedTo="26"/>
        <edge id="-E8" sampledSeconds="244.96" traveltime="7.98" overlapTraveltime="8.75" density="12.06" laneDensity="3.01" occupancy="1.41" waitingTime="50.00" timeLoss="98.43" speed="8.16" speedRelative="0.59" departed="0" arrived="0" entered="28" left="28" laneChangedFrom="4" laneChangedTo="4"/>
        <edge id="-E9" sampledSeconds="775.58" traveltime="27.55" overlapTraveltime="28.46" density="30.46" laneDensity="7.62" occupancy="3.76" waitingTime="416.00" timeLoss="603.76" speed="3.10" speedRelative="0.22" departed="30" arrived="0" entered="0" left="28" laneChangedFrom="60" laneChangedTo="60"/>
        <edge id="E0" sampledSeconds="417.71" traveltime="15.51" overlapTraveltime="16.88" density="20.56" laneDensity="5.14" occupancy="2.47" waitingTime="209.00" timeLoss="287.46" speed="4.23" speedRelative="0.30" departed="0" arrived="0" entered="25" left="22" laneChangedFrom="9" laneChangedTo="9"/>
        <edge id="E1" sampledSeconds="477.47" traveltime="16.68" overlapTraveltime="17.67" density="23.50" laneDensity="5.87" occupancy="2.83" waitingTime="253.00" timeLoss="331.52" speed="4.04" speedRelative="0.29" departed="0" arrived="0" entered="27" left="27" laneChangedFrom="15" laneChangedTo="15"/>
        <edge id="E10" sampledSeconds="413.35" traveltime="14.01" overlapTraveltime="15.95" density="20.34" laneDensity="5.09" occupancy="2.40" waitingTime="184.00" timeLoss="270.79" speed="4.48" speedRelative="0.32" departed="0" arrived="0" entered="26" left="25" laneChangedFrom="11" laneChangedTo="11"/>
        <edge id="E11" sampledSeconds="385.24" traveltime="15.12" overlapTraveltime="16.04" density="18.96" laneDensity="4.74" occupancy="2.28" waitingTime="181.00" timeLoss="256.39" speed="4.45" speedRelative="0.32" departed="0" arrived="0" entered="24" left="24" laneChangedFrom="21" laneChangedTo="21"/>
        <edge id="E12" sampledSeconds="327.34" traveltime="11.81" overlapTraveltime="12.59" density="16.11" laneDensity="4.03" occupancy="1.92" waitingTime="132.00" timeLoss="180.40" speed="5.67" speedRelative="0.41" departed="0" arrived="0" entered="26" left="26" laneChangedFrom="15" laneChangedTo="15"/>
        <edge id="E13" sampledSeconds="155.73" traveltime="6.72" overlapTraveltime="7.11" density="6.12" laneDensity="1.53" occupancy="0.72" waitingTime="0.00" timeLoss="10.93" speed="12.40" speedRelative="0.89" departed="0" arrived="22" entered="22" left="0" laneChangedFrom="0" laneChangedTo="0"/>
        <edge id="E14" sampledSeconds="150.94" traveltime="6.56" overlapTraveltime="6.94" density="5.93" laneDensity="1.48" occupancy="0.70" waitingTime="0.00" timeLoss="15.60" speed="12.72" speedRelative="0.92" departed="0" arrived="22" entered="22" left="0" laneChangedFrom="0" laneChangedTo="0"/>
        <edge id="E15" sampledSeconds="146.78" traveltime="6.69" overlapTraveltime="7.06" density="5.77" laneDensity="1.44" occupancy="0.68" waitingTime="0.00" timeLoss="19.42" speed="12.50" speedRelative="0.90" departed="0" arrived="21" entered="21" left="0" laneChangedFrom="1" laneChangedTo="1"/>
        <edge id="E16" sampledSeconds="149.35" traveltime="6.87" overlapTraveltime="7.25" density="5.87" laneDensity="1.47" occupancy="0.69" waitingTime="0.00" timeLoss="18.25" speed="12.17" speedRelative="0.88" departed="0" arrived="21" entered="21" left="0" laneChangedFrom="0" laneChangedTo="0"/>
        <edge id="E17" sampledSeconds="104.79" traveltime="6.68" overlapTraveltime="7.06" density="4.12" laneDensity="1.03" occupancy="0.49" waitingTime="0.00" timeLoss="9.00" speed="12.49" speedRelative="0.90" departed="0" arrived="15" entered="15" left="0" laneChangedFrom="0" laneChangedTo="0"/>
        <edge id="E18" sampledSeconds="598.84" traveltime="14.97" overlapTraveltime="15.83" density="29.47" laneDensity="7.37" occupancy="3.55" waitingTime="296.00" timeLoss="396.83" speed="4.51" speedRelative="0.32" departed="0" arrived="0" entered="39" left="33" laneChangedFrom="29" laneChangedTo="29"/>
        <edge id="E19" sampledSeconds="486.21" traveltime="14.37" overlapTraveltime="15.55" density="23.93" laneDensity="5.98" occupancy="2.87" waitingTime="251.00" timeLoss="317.20" speed="4.59" speedRelative="0.33" departed="0" arrived="0" entered="32" left="27" laneChangedFrom="20" laneChangedTo="20"/>