<?xml version="1.0" encoding="UTF-8"?>

<!-- generated on 2022-11-17 15:59:33 by Eclipse SUMO GUI Version 1.14.1
<configuration xmlns:xsi="http://www.w3.org/2001/XMLSchema-instance" xsi:noNamespaceSchemaLocation="http://sumo.dlr.de/xsd/sumoConfiguration.xsd">

    <input>
        <net-file value="C:\Users\connp\OneDrive\Documents\_Pitt\Traffic_Capstone\team-project\3x3Grid\network.net.xml"/>
        <route-files value="C:\Users\connp\OneDrive\Documents\_Pitt\Traffic_Capstone\team-project\3x3Grid\routes_0.01.rou.xml"/>
        <additional-files value="C:\Users\connp\OneDrive\Documents\_Pitt\Traffic_Capstone\team-project\3x3Grid\edge_0.01.add.xml"/>
    </input>

    <time>
        <begin value="0"/>
        <end value="1000"/>
    </time>

</configuration>
-->

<meandata xmlns:xsi="http://www.w3.org/2001/XMLSchema-instance" xsi:noNamespaceSchemaLocation="http://sumo.dlr.de/xsd/meandata_file.xsd">
    <interval begin="0.00" end="1000.00" id="EMSData">
        <edge id="-E16" sampledSeconds="16.37" traveltime="16.61" overlapTraveltime="17.67" density="0.20" laneDensity="0.05" occupancy="0.03" waitingTime="3.00" timeLoss="12.38" speed="5.08" speedRelative="0.37" departed="1" arrived="0" entered="0" left="1" laneChangedFrom="1" laneChangedTo="1"/>
        <edge id="-E2" sampledSeconds="33.57" traveltime="32.59" overlapTraveltime="33.57" density="0.51" laneDensity="0.13" occupancy="0.08" waitingTime="23.00" timeLoss="30.08" speed="2.17" speedRelative="0.16" departed="0" arrived="0" entered="1" left="1" laneChangedFrom="1" laneChangedTo="1"/>
        <edge id="-E20" sampledSeconds="5.47" traveltime="4.65" overlapTraveltime="5.47" density="0.08" laneDensity="0.02" occupancy="0.01" waitingTime="0.00" timeLoss="1.53" speed="13.33" speedRelative="0.96" departed="0" arrived="0" entered="1" left="1" laneChangedFrom="2" laneChangedTo="2"/>
        <edge id="-E21" sampledSeconds="12.36" traveltime="7.60" overlapTraveltime="8.61" density="0.19" laneDensity="0.05" occupancy="0.03" waitingTime="0.00" timeLoss="7.34" speed="8.47" speedRelative="0.61" departed="0" arrived="0" entered="1" left="1" laneChangedFrom="2" laneChangedTo="2"/>
        <edge id="-E3" sampledSeconds="8.57" traveltime="8.92" overlapTraveltime="9.25" density="0.10" laneDensity="0.03" occupancy="0.02" waitingTime="0.00" timeLoss="4.58" speed="9.70" speedRelative="0.70" departed="1" arrived="0" entered="0" left="1" laneChangedFrom="1" laneChangedTo="1"/>
        <edge id="-E5" sampledSeconds="22.47" traveltime="23.20" overlapTraveltime="24.26" density="0.27" laneDensity="0.07" occupancy="0.04" waitingTime="5.00" timeLoss="18.20" speed="3.70" speedRelative="0.27" departed="1" arrived="0" entered="0" left="1" laneChangedFrom="0" laneChangedTo="0"/>
        <edge id="-E6" sampledSeconds="12.44" traveltime="13.39" overlapTraveltime="14.79" density="0.15" laneDensity="0.04" occupancy="0.02" waitingTime="0.00" timeLoss="8.81" speed="6.07" speedRelative="0.44" departed="1" arrived="0" entered="0" left="1" laneChangedFrom="1" laneChangedTo="1"/>
        <edge id="-E9" sampledSeconds="9.00" traveltime="9.36" overlapTraveltime="9.71" density="0.11" laneDensity="0.03" occupancy="0.02" waitingTime="0.00" timeLoss="5.01" speed="9.24" speedRelative="0.66" departed="1" arrived="0" entered="0" left="1" laneChangedFrom="2" laneChangedTo="2"/>
        <edge id="E0" sampledSeconds="5.71" traveltime="5.19" overlapTraveltime="5.71" density="0.09" laneDensity="0.02" occupancy="0.01" waitingTime="0.00" timeLoss="2.21" speed="12.77" speedRelative="0.92" departed="0" arrived="0" entered="1" left="1" laneChangedFrom="0" laneChangedTo="0"/>
        <edge id="E1" sampledSeconds="3.63" traveltime="3.31" overlapTraveltime="3.63" density="0.05" laneDensity="0.01" occupancy="0.01" waitingTime="0.00" timeLoss="0.13" speed="20.09" speedRelative="1.45" departed="0" arrived="0" entered="1" left="1" laneChangedFrom="0" laneChangedTo="0"/>
        <edge id="E10" sampledSeconds="17.27" traveltime="6.96" overlapTraveltime="17.27" density="0.26" laneDensity="0.07" occupancy="0.02" waitingTime="7.00" timeLoss="13.77" speed="4.22" speedRelative="0.30" departed="0" arrived="0" entered="1" left="1" laneChangedFrom="1" laneChangedTo="1"/>
        <edge id="E11" sampledSeconds="3.59" traveltime="3.27" overlapTraveltime="3.59" density="0.05" laneDensity="0.01" occupancy="0.01" waitingTime="0.00" timeLoss="0.09" speed="20.31" speedRelative="1.46" departed="0" arrived="0" entered="1" left="1" laneChangedFrom="0" laneChangedTo="0"/>
        <edge id="E14" sampledSeconds="4.16" traveltime="4.16" overlapTraveltime="4.48" density="0.05" laneDensity="0.01" occupancy="0.01" waitingTime="0.00" timeLoss="0.16" speed="20.02" speedRelative="1.44" departed="0" arrived="1" entered="1" left="0" laneChangedFrom="0" laneChangedTo="0"/>
        <edge id="E15" sampledSeconds="5.13" traveltime="5.09" overlapTraveltime="5.48" density="0.06" laneDensity="0.02" occupancy="0.01" waitingTime="0.00" timeLoss="1.10" speed="16.37" speedRelative="1.18" departed="0" arrived="1" entered="1" left="0" laneChangedFrom="0" laneChangedTo="0"/>
        <edge id="E20" sampledSeconds="9.28" traveltime="4.32" overlapTraveltime="4.64" density="0.14" laneDensity="0.03" occupancy="0.02" waitingTime="0.00" timeLoss="2.28" speed="15.72" speedRelative="1.13" departed="0" arrived="0" entered="2" left="2" laneChangedFrom="1" laneChangedTo="1"/>
        <edge id="E21" sampledSeconds="7.22" traveltime="3.29" overlapTraveltime="3.61" density="0.11" laneDensity="0.03" occupancy="0.02" waitingTime="0.00" timeLoss="0.23" speed="20.18" speedRelative="1.45" departed="0" arrived="0" entered="2" left="2" laneChangedFrom="0" laneChangedTo="0"/>
        <edge id="E22" sampledSeconds="8.87" traveltime="4.18" overlapTraveltime="4.51" density="0.11" laneDensity="0.03" occupancy="0.02" waitingTime="0.00" timeLoss="0.41" speed="19.88" speedRelative="1.43" departed="0" arrived="2" entered="2" left="0" laneChangedFrom="0" laneChangedTo="0"/>
        <edge id="E4" sampledSeconds="7.16" traveltime="7.15" overlapTraveltime="7.86" density="0.11" laneDensity="0.03" occupancy="0.02" waitingTime="0.00" timeLoss="3.48" speed="9.28" speedRelative="0.67" departed="0" arrived="0" entered="1" left="1" laneChangedFrom="0" laneChangedTo="0"/>
        <edge id="E7" sampledSeconds="7.36" traveltime="6.93" overlapTraveltime="7.36" density="0.09" laneDensity="0.02" occupancy="0.01" waitingTime="0.00" timeLoss="3.06" speed="12.18" speedRelative="0.88" departed="0" arrived="1" entered="1" left="0" laneChangedFrom="0" laneChangedTo="0"/>
        <edge id="E8" sampledSeconds="3.86" traveltime="3.47" overlapTraveltime="3.86" density="0.06" laneDensity="0.01" occupancy="0.01" waitingTime="0.00" timeLoss="0.13" speed="18.91" speedRelative="1.36" departed="0" arrived="0" entered="1" left="1" laneChangedFrom="0" laneChangedTo="0"/>
    </interval>
    <interval begin="0.00" end="1000.00" id="OtherData">
        <edge id="-E0" sampledSeconds="2202.14" traveltime="16.86" overlapTraveltime="17.88" density="33.16" laneDensity="8.29" occupancy="3.99" waitingTime="1112.00" timeLoss="1543.70" speed="3.99" speedRelative="0.29" departed="0" arrived="0" entered="124" left="121" laneChangedFrom="142" laneChangedTo="142"/>
        <edge id="-E1" sampledSeconds="1906.54" traveltime="19.60" overlapTraveltime="20.78" density="28.71" laneDensity="7.18" occupancy="3.47" waitingTime="1082.00" timeLoss="1429.11" speed="3.44" speedRelative="0.25" departed="0" arrived="0" entered="95" left="90" laneChangedFrom="55" laneChangedTo="55"/>
        <edge id="-E10" sampledSeconds="2727.39" traveltime="24.79" overlapTraveltime="26.84" density="41.08" laneDensity="10.27" occupancy="4.80" waitingTime="1671.00" timeLoss="2185.39" speed="2.66" speedRelative="0.19" departed="0" arrived="0" entered="102" left="100" laneChangedFrom="87" laneChangedTo="87"/>
        <edge id="-E11" sampledSeconds="2514.54" traveltime="22.21" overlapTraveltime="23.52" density="37.87" laneDensity="9.47" occupancy="4.59" waitingTime="1463.00" timeLoss="1954.19" speed="3.04" speedRelative="0.22" departed="0" arrived="0" entered="107" left="107" laneChangedFrom="107" laneChangedTo="107"/>
        <edge id="-E12" sampledSeconds="2898.53" traveltime="22.34" overlapTraveltime="24.02" density="43.65" laneDensity="10.91" occupancy="5.29" waitingTime="1597.00" timeLoss="2258.44" speed="2.97" speedRelative="0.21" departed="0" arrived="0" entered="121" left="120" laneChangedFrom="104" laneChangedTo="104"/>
        <edge id="-E13" sampledSeconds="2624.11" traveltime="26.66" overlapTraveltime="27.69" density="31.54" laneDensity="7.88" occupancy="3.88" waitingTime="1352.00" timeLoss="2000.35" speed="3.19" speedRelative="0.23" departed="102" arrived="0" entered="0" left="99" laneChangedFrom="108" laneChangedTo="108"/>
        <edge id="-E14" sampledSeconds="3159.23" traveltime="30.21" overlapTraveltime="31.63" density="37.97" laneDensity="9.49" occupancy="4.60" waitingTime="1750.00" timeLoss="2507.51" speed="2.79" speedRelative="0.20" departed="106" arrived="0" entered="0" left="106" laneChangedFrom="169" laneChangedTo="169"/>
        <edge id="-E15" sampledSeconds="3595.82" traveltime="34.15" overlapTraveltime="36.03" density="43.22" laneDensity="10.80" occupancy="5.32" waitingTime="2082.00" timeLoss="2952.44" speed="2.45" speedRelative="0.18" departed="107" arrived="0" entered="0" left="104" laneChangedFrom="216" laneChangedTo="216"/>
        <edge id="-E16" sampledSeconds="3036.94" traveltime="27.44" overlapTraveltime="28.80" density="36.50" laneDensity="9.13" occupancy="4.48" waitingTime="1589.00" timeLoss="2341.56" speed="3.06" speedRelative="0.22" departed="114" arrived="0" entered="0" left="108" laneChangedFrom="188" laneChangedTo="188"/>
        <edge id="-E17" sampledSeconds="2830.02" traveltime="27.05" overlapTraveltime="28.15" density="34.01" laneDensity="8.50" occupancy="4.18" waitingTime="1499.00" timeLoss="2173.15" speed="3.13" speedRelative="0.23" departed="107" arrived="0" entered="0" left="104" laneChangedFrom="108" laneChangedTo="108"/>
        <edge id="-E18" sampledSeconds="1797.63" traveltime="18.03" overlapTraveltime="19.41" density="27.07" laneDensity="6.77" occupancy="3.25" waitingTime="947.00" timeLoss="1300.97" speed="3.68" speedRelative="0.26" departed="0" arrived="0" entered="94" left="91" laneChangedFrom="86" laneChangedTo="86"/>
        <edge id="-E19" sampledSeconds="2174.82" traveltime="21.14" overlapTraveltime="22.29" density="32.75" laneDensity="8.19" occupancy="3.96" waitingTime="1252.00" timeLoss="1650.72" speed="3.20" speedRelative="0.23" departed="0" arrived="0" entered="99" left="96" laneChangedFrom="80" laneChangedTo="80"/>
        <edge id="-E2" sampledSeconds="2424.92" traveltime="24.49" overlapTraveltime="25.60" density="36.52" laneDensity="9.13" occupancy="4.43" waitingTime="1487.00" timeLoss="1915.91" speed="2.79" speedRelative="0.20" departed="0" arrived="0" entered="96" left="92" laneChangedFrom="96" laneChangedTo="96"/>
        <edge id="-E20" sampledSeconds="1342.56" traveltime="17.01" overlapTraveltime="17.95" density="20.22" laneDensity="5.05" occupancy="2.43" waitingTime="716.00" timeLoss="944.34" speed="3.98" speedRelative="0.29" departed="0" arrived="0" entered="76" left="73" laneChangedFrom="68" laneChangedTo="68"/>
        <edge id="-E21" sampledSeconds="1463.34" traveltime="29.02" overlapTraveltime="30.49" density="22.04" laneDensity="5.51" occupancy="2.68" waitingTime="929.00" timeLoss="1212.37" speed="2.34" speedRelative="0.17" departed="0" arrived="0" entered="48" left="48" laneChangedFrom="91" laneChangedTo="91"/>
        <edge id="-E22" sampledSeconds="400.95" traveltime="27.41" overlapTraveltime="29.73" density="4.82" laneDensity="1.20" occupancy="0.58" waitingTime="199.00" timeLoss="301.86" speed="2.97" speedRelative="0.21" departed="15" arrived="0" entered="0" left="14" laneChangedFrom="45" laneChangedTo="45"/>
        <edge id="-E23" sampledSeconds="3395.54" traveltime="31.30" overlapTraveltime="33.18" density="40.81" laneDensity="10.20" occupancy="5.02" waitingTime="1824.00" timeLoss="2741.28" speed="2.66" speedRelative="0.19" departed="110" arrived="0" entered="0" left="104" laneChangedFrom="231" laneChangedTo="231"/>
        <edge id="-E3" sampledSeconds="3419.58" traveltime="30.18" overlapTraveltime="31.09" density="41.10" laneDensity="10.28" occupancy="5.06" waitingTime="1847.00" timeLoss="2701.16" speed="2.84" speedRelative="0.20" departed="118" arrived="0" entered="0" left="116" laneChangedFrom="185" laneChangedTo="185"/>
        <edge id="-E4" sampledSeconds="1766.62" traveltime="20.45" overlapTraveltime="21.81" density="26.61" laneDensity="6.65" occupancy="3.21" waitingTime="996.00" timeLoss="1329.59" speed="3.27" speedRelative="0.24" departed="0" arrived="0" entered="81" left="81" laneChangedFrom="62" laneChangedTo="62"/>
        <edge id="-E5" sampledSeconds="3620.67" traveltime="33.04" overlapTraveltime="34.00" density="43.52" laneDensity="10.88" occupancy="5.36" waitingTime="2106.00" timeLoss="2910.31" speed="2.59" speedRelative="0.19" departed="114" arrived="0" entered="0" left="113" laneChangedFrom="105" laneChangedTo="105"/>
        <edge id="-E6" sampledSeconds="3459.85" traveltime="35.42" overlapTraveltime="37.56" density="41.58" laneDensity="10.40" occupancy="5.12" waitingTime="2002.00" timeLoss="2855.61" speed="2.35" speedRelative="0.17" departed="98" arrived="0" entered="0" left="96" laneChangedFrom="219" laneChangedTo="219"/>
        <edge id="-E7" sampledSeconds="3447.10" traveltime="31.48" overlapTraveltime="32.55" density="41.43" laneDensity="10.36" occupancy="5.11" waitingTime="1989.00" timeLoss="2739.63" speed="2.71" speedRelative="0.20" departed="115" arrived="0" entered="0" left="109" laneChangedFrom="130" laneChangedTo="130"/>
        <edge id="-E8" sampledSeconds="1632.68" traveltime="18.04" overlapTraveltime="19.34" density="24.59" laneDensity="6.15" occupancy="2.96" waitingTime="854.00" timeLoss="1186.87" speed="3.69" speedRelative="0.27" departed="0" arrived="0" entered="86" left="82" laneChangedFrom="59" laneChangedTo="59"/>
        <edge id="-E9" sampledSeconds="3873.21" traveltime="32.74" overlapTraveltime="33.96" density="46.55" laneDensity="11.64" occupancy="5.74" waitingTime="2153.00" timeLoss="3133.29" speed="2.60" speedRelative="0.19" departed="122" arrived="0" entered="0" left="119" laneChangedFrom="255" laneChangedTo="255"/>
        <edge id="E0" sampledSeconds="1772.88" traveltime="16.44" overlapTraveltime="17.73" density="26.70" laneDensity="6.68" occupancy="3.21" waitingTime="876.00" timeLoss="1228.43" speed="4.03" speedRelative="0.29" departed="0" arrived="0" entered="100" left="100" laneChangedFrom="65" laneChangedTo="65"/>
        <edge id="E1" sampledSeconds="2233.76" traveltime="18.73" overlapTraveltime="19.94" density="33.64" laneDensity="8.41" occupancy="4.05" waitingTime="1195.00" timeLoss="1623.77" speed="3.58" speedRelative="0.26" departed="0" arrived="0" entered="114" left="109" laneChangedFrom="98" laneChangedTo="98"/>
        <edge id="E10" sampledSeconds="2041.44" traveltime="17.40" overlapTraveltime="18.98" density="30.74" laneDensity="7.69" occupancy="3.69" waitingTime="1003.00" timeLoss="1469.24" speed="3.76" speedRelative="0.27" departed="0" arrived="0" entered="108" left="106" laneChangedFrom="65" laneChangedTo="65"/>
        <edge id="E11" sampledSeconds="1477.12" traveltime="17.95" overlapTraveltime="19.24" density="22.25" laneDensity="5.56" occupancy="2.68" waitingTime="751.00" timeLoss="1070.56" speed="3.71" speedRelative="0.27" departed="0" arrived="0" entered="77" left="76" laneChangedFrom="65" laneChangedTo="65"/>
        <edge id="E12" sampledSeconds="1515.08" traveltime="15.37" overlapTraveltime="16.35" density="22.82" laneDensity="5.70" occupancy="2.74" waitingTime="747.00" timeLoss="1002.52" speed="4.37" speedRelative="0.31" departed="0" arrived="0" entered="95" left="91" laneChangedFrom="79" laneChangedTo="79"/>
        <edge id="E13" sampledSeconds="620.51" traveltime="6.66" overlapTraveltime="7.04" density="7.46" laneDensity="1.86" occupancy="0.88" waitingTime="0.00" timeLoss="51.70" speed="12.52" speedRelative="0.90" departed="0" arrived="89" entered="89" left="0" laneChangedFrom="3" laneChangedTo="3"/>
        <edge id="E14" sampledSeconds="649.89" traveltime="6.92" overlapTraveltime="7.31" density="7.81" laneDensity="1.95" occupancy="0.92" waitingTime="0.00" timeLoss="76.09" speed="12.07" speedRelative="0.87" departed="0" arrived="89" entered="90" left="0" laneChangedFrom="2" laneChangedTo="2"/>
        <edge id="E15" sampledSeconds="626.10" traveltime="6.80" overlapTraveltime="7.18" density="7.53" laneDensity="1.88" occupancy="0.88" waitingTime="0.00" timeLoss="83.91" speed="12.29" speedRelative="0.88" departed="0" arrived="86" entered="89" left="0" laneChangedFrom="3" laneChangedTo="3"/>
        <edge id="E16" sampledSeconds="687.97" traveltime="6.88" overlapTraveltime="7.27" density="8.27" laneDensity="2.07" occupancy="0.97" waitingTime="0.00" timeLoss="83.74" speed="12.13" speedRelative="0.87" departed="0" arrived="95" entered="97" left="0" laneChangedFrom="3" laneChangedTo="3"/>
        <edge id="E17" sampledSeconds="627.71" traveltime="6.60" overlapTraveltime="6.98" density="7.54" laneDensity="1.89" occupancy="0.89" waitingTime="0.00" timeLoss="58.38" speed="12.64" speedRelative="0.91" departed="0" arrived="90" entered="92" left="0" laneChangedFrom="2" laneChangedTo="2"/>
        <edge id="E18" sampledSeconds="2234.05" traveltime="17.62" overlapTraveltime="18.79" density="33.65" laneDensity="8.41" occupancy="4.05" waitingTime="1129.00" timeLoss="1597.15" speed="3.80" speedRelative="0.27" departed="0" arrived="0" entered="119" left="118" laneChangedFrom="108" laneChangedTo="108"/>
        <edge id="E19" sampledSeconds="1942.63" traveltime="17.44" overlapTraveltime="18.68" density="29.26" laneDensity="7.31" occupancy="3.52" waitingTime="1031.00" timeLoss="1388.37" speed="3.82" speedRelative="0.28" departed="0" arrived="0" entered="104" left="104" laneChangedFrom="78" laneChangedTo="78"/>
        <edge id="E2" sampledSeconds="1338.67" traveltime="12.70" overlapTraveltime="13.55" density="20.16" laneDensity="5.04" occupancy="2.41" waitingTime="586.00" timeLoss="817.85" speed="5.27" speedRelative="0.38" departed="0" arrived="0" entered="99" left="98" laneChangedFrom="28" laneChangedTo="28"/>
        <edge id="E20" sampledSeconds="2458.01" traveltime="20.85" overlapTraveltime="21.75" density="37.02" laneDensity="9.25" occupancy="4.48" waitingTime="1359.00" timeLoss="1861.70" speed="3.28" speedRelative="0.24" departed="0" arrived="0" entered="113" left="113" laneChangedFrom="136" laneChangedTo="136"/>
        <edge id="E21" sampledSeconds="1994.24" traveltime="15.36" overlapTraveltime="16.22" density="30.03" laneDensity="7.51" occupancy="3.60" waitingTime="967.00" timeLoss="1335.86" speed="4.40" speedRelative="0.32" departed="0" arrived="0" entered="123" left="122" laneChangedFrom="104" laneChangedTo="104"/>
        <edge id="E22" sampledSeconds="1019.23" traveltime="7.06" overlapTraveltime="7.45" density="12.25" laneDensity="3.06" occupancy="1.44" waitingTime="0.00" timeLoss="140.48" speed="11.84" speedRelative="0.85" departed="0" arrived="138" entered="139" left="0" laneChangedFrom="5" laneChangedTo="5"/>
        <edge id="E23" sampledSeconds="619.68" traveltime="6.85" overlapTraveltime="7.24" density="7.45" laneDensity="1.86" occupancy="0.88" waitingTime="0.00" timeLoss="71.94" speed="12.19" speedRelative="0.88" departed="0" arrived="85" entered="88" left="0" laneChangedFrom="1" laneChangedTo="1"/>
        <edge id="E3" sampledSeconds="717.49" traveltime="6.72" overlapTraveltime="7.11" density="8.62" laneDensity="2.16" occupancy="1.02" waitingTime="0.00" timeLoss="77.73" speed="12.41" speedRelative="0.89" departed="0" arrived="102" entered="102" left="0" laneChangedFrom="4" laneChangedTo="4"/>
        <edge id="E4" sampledSeconds="2148.22" traveltime="16.74" overlapTraveltime="17.69" density="32.35" laneDensity="8.09" occupancy="3.89" waitingTime="1023.00" timeLoss="1503.53" speed="4.04" speedRelative="0.29" departed="0" arrived="0" entered="124" left="119" laneChangedFrom="131" laneChangedTo="131"/>
        <edge id="E5" sampledSeconds="468.88" traveltime="6.59" overlapTraveltime="6.97" density="5.64" laneDensity="1.41" occupancy="0.66" waitingTime="0.00" timeLoss="39.37" speed="12.65" speedRelative="0.91" departed="0" arrived="68" entered="68" left="0" laneChangedFrom="4" laneChangedTo="4"/>
        <edge id="E6" sampledSeconds="695.02" traveltime="6.90" overlapTraveltime="7.29" density="8.35" laneDensity="2.09" occupancy="0.98" waitingTime="0.00" timeLoss="81.36" speed="12.10" speedRelative="0.87" departed="0" arrived="96" entered="98" left="0" laneChangedFrom="4" laneChangedTo="4"/>
        <edge id="E7" sampledSeconds="533.51" traveltime="6.71" overlapTraveltime="7.10" density="6.41" laneDensity="1.60" occupancy="0.76" waitingTime="0.00" timeLoss="47.80" speed="12.43" speedRelative="0.89" departed="0" arrived="76" entered="76" left="0" laneChangedFrom="7" laneChangedTo="7"/>
        <edge id="E8" sampledSeconds="2513.87" traveltime="19.74" overlapTraveltime="21.05" density="37.86" laneDensity="9.46" occupancy="4.57" waitingTime="1385.00" timeLoss="1864.43" speed="3.39" speedRelative="0.24" departed="0" arrived="0" entered="122" left="116" laneChangedFrom="113" laneChangedTo="113"/>
        <edge id="E9" sampledSeconds="615.16" traveltime="6.76" overlapTraveltime="7.13" density="7.39" laneDensity="1.85" occupancy="0.87" waitingTime="0.00" timeLoss="73.92" speed="12.36" speedRelative="0.89" departed="0" arrived="87" entered="87" left="0" laneChangedFrom="2" laneChangedTo="2"/>
    </interval>
    <interval begin="0.00" end="1000.00" id="AllData">
        <edge id="-E0" sampledSeconds="2202.14" traveltime="16.86" overlapTraveltime="17.88" density="33.16" laneDensity="8.29" occupancy="3.99" waitingTime="1112.00" timeLoss="1543.70" speed="3.99" speedRelative="0.29" departed="0" arrived="0" entered="124" left="121" laneChangedFrom="142" laneChangedTo="142"/>
        <edge id="-E1" sampledSeconds="1906.54" traveltime="19.60" overlapTraveltime="20.78" density="28.71" laneDensity="7.18" occupancy="3.47" waitingTime="1082.00" timeLoss="1429.11" speed="3.44" speedRelative="0.25" departed="0" arrived="0" entered="95" left="90" laneChangedFrom="55" laneChangedTo="55"/>
        <edge id="-E10" sampledSeconds="2727.39" traveltime="24.79" overlapTraveltime="26.84" density="41.08" laneDensity="10.27" occupancy="4.80" waitingTime="1671.00" timeLoss="2185.39" speed="2.66" speedRelative="0.19" departed="0" arrived="0" entered="102" left="100" laneChangedFrom="87" laneChangedTo="87"/>
        <edge id="-E11" sampledSeconds="2514.54" traveltime="22.21" overlapTraveltime="23.52" density="37.87" laneDensity="9.47" occupancy="4.59" waitingTime="1463.00" timeLoss="1954.19" speed="3.04" speedRelative="0.22" departed="0" arrived="0" entered="107" left="107" laneChangedFrom="107" laneChangedTo="107"/>
        <edge id="-E12" sampledSeconds="2898.53" traveltime="22.34" overlapTraveltime="24.02" density="43.65" laneDensity="10.91" occupancy="5.29" waitingTime="1597.00" timeLoss="2258.44" speed="2.97" speedRelative="0.21" departed="0" arrived="0" entered="121" left="120" laneChangedFrom="104" laneChangedTo="104"/>
        <edge id="-E13" sampledSeconds="2624.11" traveltime="26.66" overlapTraveltime="27.69" density="31.54" laneDensity="7.88" occupancy="3.88" waitingTime="1352.00" timeLoss="2000.35" speed="3.19" speedRelative="0.23" departed="102" arrived="0" entered="0" left="99" laneChangedFrom="108" laneChangedTo="108"/>
        <edge id="-E14" sampledSeconds="3159.23" traveltime="30.21" overlapTraveltime="31.63" density="37.97" laneDensity="9.49" occupancy="4.60" waitingTime="1750.00" timeLoss="2507.51" speed="2.79" speedRelative="0.20" departed="106" arrived="0" entered="0" left="106" laneChangedFrom="169" laneChangedTo="169"/>
        <edge id="-E15" sampledSeconds="3595.82" traveltime="34.15" overlapTraveltime="36.03" density="43.22" laneDensity="10.80" occupancy="5.32" waitingTime="2082.00" timeLoss="2952.44" speed="2.45" speedRelative="0.18" departed="107" arrived="0" entered="0" left="104" laneChangedFrom="216" laneChangedTo="216"/>
        <edge id="-E16" sampledSeconds="3053.32" traveltime="27.35" overlapTraveltime="28.70" density="36.70" laneDensity="9.17" occupancy="4.51" waitingTime="1592.00" timeLoss="2353.94" speed="3.07" speedRelative="0.22" departed="115" arrived="0" entered="0" left="109" laneChangedFrom="189" laneChangedTo="189"/>
        <edge id="-E17" sampledSeconds="2830.02" traveltime="27.05" overlapTraveltime="28.15" density="34.01" laneDensity="8.50" occupancy="4.18" waitingTime="1499.00" timeLoss="2173.15" speed="3.13" speedRelative="0.23" departed="107" arrived="0" entered="0" left="104" laneChangedFrom="108" laneChangedTo="108"/>
        <edge id="-E18" sampledSeconds="1797.63" traveltime="18.03" overlapTraveltime="19.41" density="27.07" laneDensity="6.77" occupancy="3.25" waitingTime="947.00" timeLoss="1300.97" speed="3.68" speedRelative="0.26" departed="0" arrived="0" entered="94" left="91" laneChangedFrom="86" laneChangedTo="86"/>
        <edge id="-E19" sampledSeconds="2174.82" traveltime="21.14" overlapTraveltime="22.29" density="32.75" laneDensity="8.19" occupancy="3.96" waitingTime="1252.00" timeLoss="1650.72" speed="3.20" speedRelative="0.23" departed="0" arrived="0" entered="99" left="96" laneChangedFrom="80" laneChangedTo="80"/>
        <edge id="-E2" sampledSeconds="2458.50" traveltime="24.57" overlapTraveltime="25.69" density="37.03" laneDensity="9.26" occupancy="4.51" waitingTime="1510.00" timeLoss="1945.98" speed="2.78" speedRelative="0.20" departed="0" arrived="0" entered="97" left="93" laneChangedFrom="97" laneChangedTo="97"/>
        <edge id="-E20" sampledSeconds="1348.03" traveltime="16.85" overlapTraveltime="17.78" density="20.30" laneDensity="5.08" occupancy="2.44" waitingTime="716.00" timeLoss="945.87" speed="4.02" speedRelative="0.29" departed="0" arrived="0" entered="77" left="74" laneChangedFrom="70" laneChangedTo="70"/>
        <edge id="-E21" sampledSeconds="1475.71" traveltime="28.40" overlapTraveltime="29.84" density="22.22" laneDensity="5.56" occupancy="2.71" waitingTime="929.00" timeLoss="1219.71" speed="2.39" speedRelative="0.17" departed="0" arrived="0" entered="49" left="49" laneChangedFrom="93" laneChangedTo="93"/>
        <edge id="-E22" sampledSeconds="400.95" traveltime="27.41" overlapTraveltime="29.73" density="4.82" laneDensity="1.20" occupancy="0.58" waitingTime="199.00" timeLoss="301.86" speed="2.97" speedRelative="0.21" departed="15" arrived="0" entered="0" left="14" laneChangedFrom="45" laneChangedTo="45"/>
        <edge id="-E23" sampledSeconds="3395.54" traveltime="31.30" overlapTraveltime="33.18" density="40.81" laneDensity="10.20" occupancy="5.02" waitingTime="1824.00" timeLoss="2741.28" speed="2.66" speedRelative="0.19" departed="110" arrived="0" entered="0" left="104" laneChangedFrom="231" laneChangedTo="231"/>
        <edge id="-E3" sampledSeconds="3428.15" traveltime="30.00" overlapTraveltime="30.90" density="41.20" laneDensity="10.30" occupancy="5.08" waitingTime="1847.00" timeLoss="2705.74" speed="2.85" speedRelative="0.21" departed="119" arrived="0" entered="0" left="117" laneChangedFrom="186" laneChangedTo="186"/>
        <edge id="-E4" sampledSeconds="1766.62" traveltime="20.45" overlapTraveltime="21.81" density="26.61" laneDensity="6.65" occupancy="3.21" waitingTime="996.00" timeLoss="1329.59" speed="3.27" speedRelative="0.24" departed="0" arrived="0" entered="81" left="81" laneChangedFrom="62" laneChangedTo="62"/>
        <edge id="-E5" sampledSeconds="3643.14" traveltime="32.95" overlapTraveltime="33.91" density="43.79" laneDensity="10.95" occupancy="5.40" waitingTime="2111.00" timeLoss="2928.51" speed="2.60" speedRelative="0.19" departed="115" arrived="0" entered="0" left="114" laneChangedFrom="105" laneChangedTo="105"/>
        <edge id="-E6" sampledSeconds="3472.30" traveltime="35.21" overlapTraveltime="37.35" density="41.73" laneDensity="10.43" occupancy="5.15" waitingTime="2002.00" timeLoss="2864.42" speed="2.36" speedRelative="0.17" departed="99" arrived="0" entered="0" left="97" laneChangedFrom="220" laneChangedTo="220"/>
        <edge id="-E7" sampledSeconds="3447.10" traveltime="31.48" overlapTraveltime="32.55" density="41.43" laneDensity="10.36" occupancy="5.11" waitingTime="1989.00" timeLoss="2739.63" speed="2.71" speedRelative="0.20" departed="115" arrived="0" entered="0" left="109" laneChangedFrom="130" laneChangedTo="130"/>
        <edge id="-E8" sampledSeconds="1632.68" traveltime="18.04" overlapTraveltime="19.34" density="24.59" laneDensity="6.15" occupancy="2.96" waitingTime="854.00" timeLoss="1186.87" speed="3.69" speedRelative="0.27" departed="0" arrived="0" entered="86" left="82" laneChangedFrom="59" laneChangedTo="59"/>
        <edge id="-E9" sampledSeconds="3882.21" traveltime="32.55" overlapTraveltime="33.76" density="46.66" laneDensity="11.67" occupancy="5.75" waitingTime="2153.00" timeLoss="3138.30" speed="2.61" speedRelative="0.19" departed="123" arrived="0" entered="0" left="120" laneChangedFrom="257" laneChangedTo="257"/>
        <edge id="E0" sampledSeconds="1778.59" traveltime="16.33" overlapTraveltime="17.61" density="26.79" laneDensity="6.70" occupancy="3.22" waitingTime="876.00" timeLoss="1230.64" speed="4.06" speedRelative="0.29" departed="0" arrived="0" entered="101" left="101" laneChangedFrom="65" laneChangedTo="65"/>
        <edge id="E1" sampledSeconds="2237.39" traveltime="18.60" overlapTraveltime="19.79" density="33.70" laneDensity="8.42" occupancy="4.06" waitingTime="1195.00" timeLoss="1623.90" speed="3.61" speedRelative="0.26" departed="0" arrived="0" entered="115" left="110" laneChangedFrom="98" laneChangedTo="98"/>