<?xml version="1.0" encoding="UTF-8"?>

<!-- generated on 2022-11-15 18:09:08 by Eclipse SUMO sumo Version 1.14.1
<configuration xmlns:xsi="http://www.w3.org/2001/XMLSchema-instance" xsi:noNamespaceSchemaLocation="http://sumo.dlr.de/xsd/sumoConfiguration.xsd">

    <input>
        <net-file value="network.net.xml"/>
        <route-files value="routes_0.10.rou.xml"/>
    </input>

    <output>
        <tripinfo-output value=".\data\tripInfo0.10.xml"/>
    </output>

    <time>
        <begin value="0"/>
        <end value="3500"/>
    </time>

    <report>
        <no-warnings value="true"/>
    </report>

</configuration>
-->

<tripinfos xmlns:xsi="http://www.w3.org/2001/XMLSchema-instance" xsi:noNamespaceSchemaLocation="http://sumo.dlr.de/xsd/tripinfo_file.xsd">
    <tripinfo id="f_68.0" depart="2.00" departLane="-E15_0" departPos="5.10" departSpeed="0.00" departDelay="1.00" arrival="21.00" arrivalLane="E17_0" arrivalPos="83.20" arrivalSpeed="13.23" duration="19.00" routeLength="170.33" waitingTime="0.00" waitingCount="0" stopTime="0.00" timeLoss="5.15" rerouteNo="0" devices="tripinfo_f_68.0 routing_f_68.0" vType="DEFAULT_VEHTYPE" speedFactor="0.97" vaporized=""/>
    <tripinfo id="f_99.0" depart="6.00" departLane="-E13_0" departPos="5.10" departSpeed="0.00" departDelay="5.00" arrival="29.00" arrivalLane="E23_3" arrivalPos="83.20" arrivalSpeed="13.16" duration="23.00" routeLength="190.97" waitingTime="1.00" waitingCount="1" stopTime="0.00" timeLoss="7.53" rerouteNo="0" devices="tripinfo_f_99.0 routing_f_99.0" vType="DEFAULT_VEHTYPE" speedFactor="0.95" vaporized=""/>
    <tripinfo id="f_71.0" depart="0.00" departLane="-E15_0" departPos="5.10" departSpeed="0.00" departDelay="0.00" arrival="30.00" arrivalLane="E5_0" arrivalPos="83.20" arrivalSpeed="14.36" duration="30.00" routeLength="395.20" waitingTime="0.00" waitingCount="0" stopTime="0.00" timeLoss="3.84" rerouteNo="1" devices="tripinfo_f_71.0 routing_f_71.0" vType="DEFAULT_VEHTYPE" speedFactor="1.12" vaporized=""/>
    <tripinfo id="f_69.0" depart="6.00" departLane="-E15_0" departPos="5.10" departSpeed="0.00" departDelay="4.00" arrival="32.00" arrivalLane="E16_0" arrivalPos="83.20" arrivalSpeed="14.60" duration="26.00" routeLength="270.43" waitingTime="0.00" waitingCount="0" stopTime="0.00" timeLoss="6.46" rerouteNo="1" devices="tripinfo_f_69.0 routing_f_69.0" vType="DEFAULT_VEHTYPE" speedFactor="1.10" vaporized=""/>
    <tripinfo id="f_33.0" depart="11.00" departLane="-E5_0" departPos="5.10" departSpeed="0.00" departDelay="5.00" arrival="34.00" arrivalLane="E6_3" arrivalPos="83.20" arrivalSpeed="14.13" duration="23.00" routeLength="190.97" waitingTime="0.00" waitingCount="0" stopTime="0.00" timeLoss="9.18" rerouteNo="0" devices="tripinfo_f_33.0 routing_f_33.0" vType="DEFAULT_VEHTYPE" speedFactor="1.09" vaporized=""/>
    <tripinfo id="f_13.0" depart="3.00" departLane="-E9_0" departPos="5.10" departSpeed="0.00" departDelay="1.00" arrival="35.00" arrivalLane="E23_0" arrivalPos="83.20" arrivalSpeed="15.55" duration="32.00" routeLength="370.53" waitingTime="0.00" waitingCount="0" stopTime="0.00" timeLoss="8.07" rerouteNo="0" devices="tripinfo_f_13.0 routing_f_13.0" vType="DEFAULT_VEHTYPE" speedFactor="1.18" vaporized=""/>
    <tripinfo id="f_68.1" depart="18.00" departLane="-E15_0" departPos="5.10" departSpeed="0.00" departDelay="10.00" arrival="36.00" arrivalLane="E17_0" arrivalPos="83.20" arrivalSpeed="12.72" duration="18.00" routeLength="170.33" waitingTime="0.00" waitingCount="0" stopTime="0.00" timeLoss="4.66" rerouteNo="0" devices="tripinfo_f_68.1 routing_f_68.1" vType="DEFAULT_VEHTYPE" speedFactor="0.96" vaporized=""/>
    <tripinfo id="f_30.0" depart="4.00" departLane="-E5_0" departPos="5.10" departSpeed="0.00" departDelay="0.00" arrival="37.00" arrivalLane="E15_0" arrivalPos="83.20" arrivalSpeed="13.07" duration="33.00" routeLength="395.10" waitingTime="0.00" waitingCount="0" stopTime="0.00" timeLoss="4.17" rerouteNo="1" devices="tripinfo_f_30.0 routing_f_30.0" vType="DEFAULT_VEHTYPE" speedFactor="1.00" vaporized=""/>
    <tripinfo id="f_12.0" depart="12.00" departLane="-E9_0" departPos="5.10" departSpeed="0.00" departDelay="6.00" arrival="39.00" arrivalLane="E22_0" arrivalPos="83.20" arrivalSpeed="12.45" duration="27.00" routeLength="270.43" waitingTime="0.00" waitingCount="0" stopTime="0.00" timeLoss="5.86" rerouteNo="0" devices="tripinfo_f_12.0 routing_f_12.0" vType="DEFAULT_VEHTYPE" speedFactor="0.98" vaporized=""/>
    <tripinfo id="f_0.0" depart="9.00" departLane="-E3_0" departPos="5.10" departSpeed="0.00" departDelay="6.00" arrival="40.00" arrivalLane="E14_0" arrivalPos="83.20" arrivalSpeed="14.39" duration="31.00" routeLength="395.10" waitingTime="0.00" waitingCount="0" stopTime="0.00" timeLoss="4.74" rerouteNo="0" devices="tripinfo_f_0.0 routing_f_0.0" vType="DEFAULT_VEHTYPE" speedFactor="1.09" vaporized=""/>
    <tripinfo id="f_99.1" depart="21.00" departLane="-E13_0" departPos="5.10" departSpeed="0.00" departDelay="16.00" arrival="41.00" arrivalLane="E23_3" arrivalPos="83.20" arrivalSpeed="12.75" duration="20.00" routeLength="190.97" waitingTime="0.00" waitingCount="0" stopTime="0.00" timeLoss="4.89" rerouteNo="0" devices="tripinfo_f_99.1 routing_f_99.1" vType="DEFAULT_VEHTYPE" speedFactor="0.98" vaporized=""/>
    <tripinfo id="f_11.0" depart="22.00" departLane="-E9_0" departPos="5.10" departSpeed="0.00" departDelay="11.00" arrival="41.00" arrivalLane="E7_0" arrivalPos="83.20" arrivalSpeed="13.65" duration="19.00" routeLength="170.33" waitingTime="0.00" waitingCount="0" stopTime="0.00" timeLoss="6.30" rerouteNo="0" devices="tripinfo_f_11.0 routing_f_11.0" vType="DEFAULT_VEHTYPE" speedFactor="1.02" vaporized=""/>
    <tripinfo id="f_33.1" depart="24.00" departLane="-E5_0" departPos="5.10" departSpeed="0.00" departDelay="12.00" arrival="44.00" arrivalLane="E6_3" arrivalPos="83.20" arrivalSpeed="15.77" duration="20.00" routeLength="190.97" waitingTime="0.00" waitingCount="0" stopTime="0.00" timeLoss="6.65" rerouteNo="0" devices="tripinfo_f_33.1 routing_f_33.1" vType="DEFAULT_VEHTYPE" speedFactor="1.14" vaporized=""/>
    <tripinfo id="f_32.0" depart="14.00" departLane="-E5_0" departPos="5.10" departSpeed="0.00" departDelay="6.00" arrival="45.00" arrivalLane="E16_3" arrivalPos="83.20" arrivalSpeed="14.33" duration="31.00" routeLength="291.07" waitingTime="1.00" waitingCount="1" stopTime="0.00" timeLoss="10.78" rerouteNo="1" devices="tripinfo_f_32.0 routing_f_32.0" vType="DEFAULT_VEHTYPE" speedFactor="1.07" vaporized=""/>
    <tripinfo id="f_97.0" depart="3.00" departLane="-E13_0" departPos="5.10" departSpeed="0.00" departDelay="2.00" arrival="46.00" arrivalLane="E7_3" arrivalPos="83.20" arrivalSpeed="11.46" duration="43.00" routeLength="391.17" waitingTime="0.00" waitingCount="0" stopTime="0.00" timeLoss="9.26" rerouteNo="1" devices="tripinfo_f_97.0 routing_f_97.0" vType="DEFAULT_VEHTYPE" speedFactor="0.87" vaporized=""/>
    <tripinfo id="f_31.0" depart="0.00" departLane="-E5_0" departPos="5.10" departSpeed="0.00" departDelay="0.00" arrival="47.00" arrivalLane="E17_3" arrivalPos="83.20" arrivalSpeed="11.91" duration="47.00" routeLength="391.07" waitingTime="7.00" waitingCount="1" stopTime="0.00" timeLoss="14.43" rerouteNo="1" devices="tripinfo_f_31.0 routing_f_31.0" vType="DEFAULT_VEHTYPE" speedFactor="0.89" vaporized=""/>
    <tripinfo id="f_98.0" depart="0.00" departLane="-E13_0" departPos="5.10" departSpeed="0.00" departDelay="0.00" arrival="47.00" arrivalLane="E22_3" arrivalPos="83.20" arrivalSpeed="13.58" duration="47.00" routeLength="291.07" waitingTime="15.00" waitingCount="1" stopTime="0.00" timeLoss="24.45" rerouteNo="1" devices="tripinfo_f_98.0 routing_f_98.0" vType="DEFAULT_VEHTYPE" speedFactor="0.99" vaporized=""/>
    <tripinfo id="f_98.1" depart="4.00" departLane="-E13_0" departPos="5.10" departSpeed="0.00" departDelay="3.00" arrival="49.00" arrivalLane="E22_3" arrivalPos="83.20" arrivalSpeed="12.47" duration="45.00" routeLength="291.07" waitingTime="11.00" waitingCount="2" stopTime="0.00" timeLoss="21.01" rerouteNo="1" devices="tripinfo_f_98.1 routing_f_98.1" vType="DEFAULT_VEHTYPE" speedFactor="0.92" vaporized=""/>
    <tripinfo id="f_33.2" depart="33.00" departLane="-E5_0" departPos="5.10" departSpeed="0.00" departDelay="18.00" arrival="50.00" arrivalLane="E6_3" arrivalPos="83.20" arrivalSpeed="14.62" duration="17.00" routeLength="190.97" waitingTime="0.00" waitingCount="0" stopTime="0.00" timeLoss="3.76" rerouteNo="0" devices="tripinfo_f_33.2 routing_f_33.2" vType="DEFAULT_VEHTYPE" speedFactor="1.11" vaporized=""/>
    <tripinfo id="f_98.2" depart="15.00" departLane="-E13_0" departPos="5.10" departSpeed="0.00" departDelay="11.00" arrival="51.00" arrivalLane="E22_3" arrivalPos="83.20" arrivalSpeed="13.03" duration="36.00" routeLength="291.07" waitingTime="3.00" waitingCount="1" stopTime="0.00" timeLoss="13.51" rerouteNo="1" devices="tripinfo_f_98.2 routing_f_98.2" vType="DEFAULT_VEHTYPE" speedFactor="0.99" vaporized=""/>
    <tripinfo id="f_100.0" depart="10.00" departLane="-E23_0" departPos="5.10" departSpeed="0.00" departDelay="6.00" arrival="54.00" arrivalLane="E13_0" arrivalPos="83.20" arrivalSpeed="14.06" duration="44.00" routeLength="170.33" waitingTime="23.00" waitingCount="1" stopTime="0.00" timeLoss="31.78" rerouteNo="0" devices="tripinfo_f_100.0 routing_f_100.0" vType="DEFAULT_VEHTYPE" speedFactor="1.10" vaporized=""/>
    <tripinfo id="f_34.0" depart="33.00" departLane="-E6_0" departPos="5.10" departSpeed="0.00" departDelay="10.00" arrival="54.00" arrivalLane="E5_0" arrivalPos="83.20" arrivalSpeed="13.37" duration="21.00" routeLength="170.33" waitingTime="0.00" waitingCount="0" stopTime="0.00" timeLoss="7.44" rerouteNo="0" devices="tripinfo_f_34.0 routing_f_34.0" vType="DEFAULT_VEHTYPE" speedFactor="0.98" vaporized=""/>
    <tripinfo id="f_10.0" depart="0.00" departLane="-E3_0" departPos="5.10" departSpeed="0.00" departDelay="0.00" arrival="55.00" arrivalLane="E9_0" arrivalPos="83.20" arrivalSpeed="14.18" duration="55.00" routeLength="245.76" waitingTime="25.00" waitingCount="1" stopTime="0.00" timeLoss="36.44" rerouteNo="0" devices="tripinfo_f_10.0 routing_f_10.0" vType="DEFAULT_VEHTYPE" speedFactor="1.06" vaporized=""/>
    <tripinfo id="f_66.0" depart="1.00" departLane="-E22_0" departPos="5.10" departSpeed="0.00" departDelay="0.00" arrival="55.00" arrivalLane="E22_3" arrivalPos="83.20" arrivalSpeed="13.33" duration="54.00" routeLength="165.97" waitingTime="31.00" waitingCount="1" stopTime="0.00" timeLoss="41.03" rerouteNo="0" devices="tripinfo_f_66.0 routing_f_66.0" vType="DEFAULT_VEHTYPE" speedFactor="1.01" vaporized=""/>
    <tripinfo id="f_89.0" depart="12.00" departLane="-E13_0" departPos="5.10" departSpeed="0.00" departDelay="8.00" arrival="55.00" arrivalLane="E14_0" arrivalPos="83.20" arrivalSpeed="13.87" duration="43.00" routeLength="245.76" waitingTime="11.00" waitingCount="1" stopTime="0.00" timeLoss="23.66" rerouteNo="1" devices="tripinfo_f_89.0 routing_f_89.0" vType="DEFAULT_VEHTYPE" speedFactor="1.02" vaporized=""/>
    <tripinfo id="f_86.1" depart="17.00" departLane="-E14_0" departPos="5.10" departSpeed="0.00" departDelay="10.00" arrival="55.00" arrivalLane="E22_2" arrivalPos="83.20" arrivalSpeed="14.20" duration="38.00" routeLength="391.17" waitingTime="0.00" waitingCount="0" stopTime="0.00" timeLoss="11.49" rerouteNo="1" devices="tripinfo_f_86.1 routing_f_86.1" vType="DEFAULT_VEHTYPE" speedFactor="1.10" vaporized=""/>
    <tripinfo id="f_79.0" depart="20.00" departLane="-E14_0" departPos="5.10" departSpeed="0.00" departDelay="11.00" arrival="55.00" arrivalLane="E15_0" arrivalPos="83.20" arrivalSpeed="13.04" duration="35.00" routeLength="245.76" waitingTime="4.00" waitingCount="1" stopTime="0.00" timeLoss="14.44" rerouteNo="1" devices="tripinfo_f_79.0 routing_f_79.0" vType="DEFAULT_VEHTYPE" speedFactor="0.94" vaporized=""/>
    <tripinfo id="f_8.0" depart="15.00" departLane="-E3_0" departPos="5.10" departSpeed="0.00" departDelay="11.00" arrival="56.00" arrivalLane="E6_1" arrivalPos="83.20" arrivalSpeed="13.57" duration="41.00" routeLength="291.07" waitingTime="8.00" waitingCount="1" stopTime="0.00" timeLoss="19.84" rerouteNo="0" devices="tripinfo_f_8.0 routing_f_8.0" vType="DEFAULT_VEHTYPE" speedFactor="1.02" vaporized=""/>
    <tripinfo id="f_86.0" depart="8.00" departLane="-E14_0" departPos="5.10" departSpeed="0.00" departDelay="4.00" arrival="56.00" arrivalLane="E22_0" arrivalPos="83.20" arrivalSpeed="14.27" duration="48.00" routeLength="391.17" waitingTime="8.00" waitingCount="2" stopTime="0.00" timeLoss="22.20" rerouteNo="1" devices="tripinfo_f_86.0 routing_f_86.0" vType="DEFAULT_VEHTYPE" speedFactor="1.12" vaporized=""/>
    <tripinfo id="f_7.1" depart="22.00" departLane="-E3_0" departPos="5.10" departSpeed="0.00" departDelay="15.00" arrival="56.00" arrivalLane="E7_2" arrivalPos="83.20" arrivalSpeed="13.97" duration="34.00" routeLength="270.43" waitingTime="1.00" waitingCount="1" stopTime="0.00" timeLoss="13.73" rerouteNo="0" devices="tripinfo_f_7.1 routing_f_7.1" vType="DEFAULT_VEHTYPE" speedFactor="1.01" vaporized=""/>
    <tripinfo id="f_34.1" depart="37.00" departLane="-E6_0" departPos="5.10" departSpeed="0.00" departDelay="12.00" arrival="56.00" arrivalLane="E5_0" arrivalPos="83.20" arrivalSpeed="13.11" duration="19.00" routeLength="170.33" waitingTime="0.00" waitingCount="0" stopTime="0.00" timeLoss="6.37" rerouteNo="0" devices="tripinfo_f_34.1 routing_f_34.1" vType="DEFAULT_VEHTYPE" speedFactor="1.01" vaporized=""/>
    <tripinfo id="f_2.0" depart="3.00" departLane="-E3_0" departPos="5.10" departSpeed="0.00" departDelay="3.00" arrival="57.00" arrivalLane="E15_0" arrivalPos="83.20" arrivalSpeed="14.29" duration="54.00" routeLength="466.60" waitingTime="6.00" waitingCount="1" stopTime="0.00" timeLoss="20.11" rerouteNo="0" devices="tripinfo_f_2.0 routing_f_2.0" vType="DEFAULT_VEHTYPE" speedFactor="1.05" vaporized=""/>
    <tripinfo id="f_82.0" depart="3.00" departLane="-E14_0" departPos="5.10" departSpeed="0.00" departDelay="0.00" arrival="57.00" arrivalLane="E6_0" arrivalPos="83.20" arrivalSpeed="11.52" duration="54.00" routeLength="470.63" waitingTime="1.00" waitingCount="1" stopTime="0.00" timeLoss="13.35" rerouteNo="1" devices="tripinfo_f_82.0 routing_f_82.0" vType="DEFAULT_VEHTYPE" speedFactor="0.85" vaporized=""/>
    <tripinfo id="f_10.1" depart="12.00" departLane="-E3_0" departPos="5.10" departSpeed="0.00" departDelay="8.00" arrival="57.00" arrivalLane="E9_0" arrivalPos="83.20" arrivalSpeed="13.92" duration="45.00" routeLength="245.76" waitingTime="13.00" waitingCount="1" stopTime="0.00" timeLoss="26.29" rerouteNo="0" devices="tripinfo_f_10.1 routing_f_10.1" vType="DEFAULT_VEHTYPE" speedFactor="1.02" vaporized=""/>
    <tripinfo id="f_81.0" depart="5.00" departLane="-E14_0" departPos="5.10" departSpeed="0.00" departDelay="1.00" arrival="57.00" arrivalLane="E16_0" arrivalPos="83.20" arrivalSpeed="12.89" duration="52.00" routeLength="370.53" waitingTime="11.00" waitingCount="1" stopTime="0.00" timeLoss="23.15" rerouteNo="1" devices="tripinfo_f_81.0 routing_f_81.0" vType="DEFAULT_VEHTYPE" speedFactor="0.97" vaporized=""/>
    <tripinfo id="f_89.1" depart="16.00" departLane="-E13_0" departPos="5.10" departSpeed="0.00" departDelay="11.00" arrival="57.00" arrivalLane="E14_0" arrivalPos="83.20" arrivalSpeed="14.63" duration="41.00" routeLength="245.76" waitingTime="10.00" waitingCount="1" stopTime="0.00" timeLoss="22.17" rerouteNo="1" devices="tripinfo_f_89.1 routing_f_89.1" vType="DEFAULT_VEHTYPE" speedFactor="1.06" vaporized=""/>
    <tripinfo id="f_80.0" depart="13.00" departLane="-E14_0" departPos="5.10" departSpeed="0.00" departDelay="6.00" arrival="57.00" arrivalLane="E17_0" arrivalPos="83.20" arrivalSpeed="11.84" duration="44.00" routeLength="270.43" waitingTime="12.00" waitingCount="1" stopTime="0.00" timeLoss="21.59" rerouteNo="1" devices="tripinfo_f_80.0 routing_f_80.0" vType="DEFAULT_VEHTYPE" speedFactor="0.91" vaporized=""/>
    <tripinfo id="f_80.1" depart="24.00" departLane="-E14_0" departPos="5.10" departSpeed="0.00" departDelay="12.00" arrival="57.00" arrivalLane="E17_2" arrivalPos="83.20" arrivalSpeed="13.18" duration="33.00" routeLength="270.43" waitingTime="0.00" waitingCount="0" stopTime="0.00" timeLoss="12.42" rerouteNo="1" devices="tripinfo_f_80.1 routing_f_80.1" vType="DEFAULT_VEHTYPE" speedFactor="1.00" vaporized=""/>
    <tripinfo id="f_100.1" depart="32.00" departLane="-E23_0" departPos="5.10" departSpeed="0.00" departDelay="19.00" arrival="57.00" arrivalLane="E13_0" arrivalPos="83.20" arrivalSpeed="12.70" duration="25.00" routeLength="170.33" waitingTime="2.00" waitingCount="1" stopTime="0.00" timeLoss="11.40" rerouteNo="0" devices="tripinfo_f_100.1 routing_f_100.1" vType="DEFAULT_VEHTYPE" speedFactor="0.98" vaporized=""/>
    <tripinfo id="f_7.0" depart="6.00" departLane="-E3_0" departPos="5.10" departSpeed="0.00" departDelay="4.00" arrival="58.00" arrivalLane="E7_0" arrivalPos="83.20" arrivalSpeed="11.25" duration="52.00" routeLength="270.43" waitingTime="19.00" waitingCount="1" stopTime="0.00" timeLoss="29.03" rerouteNo="0" devices="tripinfo_f_7.0 routing_f_7.0" vType="DEFAULT_VEHTYPE" speedFactor="0.90" vaporized=""/>
    <tripinfo id="f_18.0" depart="2.00" departLane="-E9_0" departPos="5.10" departSpeed="0.00" departDelay="1.00" arrival="60.00" arrivalLane="E14_0" arrivalPos="83.20" arrivalSpeed="12.78" duration="58.00" routeLength="466.60" waitingTime="4.00" waitingCount="2" stopTime="0.00" timeLoss="20.70" rerouteNo="0" devices="tripinfo_f_18.0 routing_f_18.0" vType="DEFAULT_VEHTYPE" speedFactor="0.94" vaporized=""/>
    <tripinfo id="f_10.2" depart="19.00" departLane="-E3_0" departPos="5.10" departSpeed="0.00" departDelay="12.00" arrival="60.00" arrivalLane="E9_0" arrivalPos="83.20" arrivalSpeed="14.47" duration="41.00" routeLength="245.76" waitingTime="8.00" waitingCount="1" stopTime="0.00" timeLoss="21.82" rerouteNo="0" devices="tripinfo_f_10.2 routing_f_10.2" vType="DEFAULT_VEHTYPE" speedFactor="1.04" vaporized=""/>
    <tripinfo id="f_18.1" depart="8.00" departLane="-E9_0" departPos="5.10" departSpeed="0.00" departDelay="5.00" arrival="62.00" arrivalLane="E14_0" arrivalPos="83.20" arrivalSpeed="12.68" duration="54.00" routeLength="466.60" waitingTime="3.00" waitingCount="1" stopTime="0.00" timeLoss="19.28" rerouteNo="0" devices="tripinfo_f_18.1 routing_f_18.1" vType="DEFAULT_VEHTYPE" speedFactor="1.00" vaporized=""/>
    <tripinfo id="f_75.0" depart="8.00" departLane="-E15_0" departPos="5.10" departSpeed="0.00" departDelay="6.00" arrival="63.00" arrivalLane="E22_2" arrivalPos="83.20" arrivalSpeed="13.83" duration="55.00" routeLength="491.27" waitingTime="3.00" waitingCount="1" stopTime="0.00" timeLoss="19.92" rerouteNo="1" devices="tripinfo_f_75.0 routing_f_75.0" vType="DEFAULT_VEHTYPE" speedFactor="1.03" vaporized=""/>
    <tripinfo id="f_76.0" depart="13.00" departLane="-E15_0" departPos="5.10" departSpeed="0.00" departDelay="8.00" arrival="64.00" arrivalLane="E23_0" arrivalPos="83.20" arrivalSpeed="13.43" duration="51.00" routeLength="391.17" waitingTime="2.00" waitingCount="1" stopTime="0.00" timeLoss="21.00" rerouteNo="1" devices="tripinfo_f_76.0 routing_f_76.0" vType="DEFAULT_VEHTYPE" speedFactor="0.97" vaporized=""/>
    <tripinfo id="f_35.0" depart="6.00" departLane="-E6_0" departPos="5.10" departSpeed="0.00" departDelay="0.00" arrival="64.00" arrivalLane="E3_0" arrivalPos="83.20" arrivalSpeed="13.84" duration="58.00" routeLength="270.43" waitingTime="27.00" waitingCount="1" stopTime="0.00" timeLoss="38.43" rerouteNo="1" devices="tripinfo_f_35.0 routing_f_35.0" vType="DEFAULT_VEHTYPE" speedFactor="1.03" vaporized=""/>
    <tripinfo id="f_101.0" depart="4.00" departLane="-E23_0" departPos="5.10" departSpeed="0.00" departDelay="2.00" arrival="65.00" arrivalLane="E14_0" arrivalPos="83.20" arrivalSpeed="14.44" duration="61.00" routeLength="270.43" waitingTime="30.00" waitingCount="1" stopTime="0.00" timeLoss="42.63" rerouteNo="1" devices="tripinfo_f_101.0 routing_f_101.0" vType="DEFAULT_VEHTYPE" speedFactor="1.13" vaporized=""/>
    <tripinfo id="f_92.0" depart="9.00" departLane="-E13_0" departPos="5.10" departSpeed="0.00" departDelay="7.00" arrival="65.00" arrivalLane="E17_0" arrivalPos="83.20" arrivalSpeed="12.20" duration="56.00" routeLength="370.53" waitingTime="15.00" waitingCount="1" stopTime="0.00" timeLoss="26.34" rerouteNo="1" devices="tripinfo_f_92.0 routing_f_92.0" vType="DEFAULT_VEHTYPE" speedFactor="0.96" vaporized=""/>
    <tripinfo id="f_24.0" depart="6.00" departLane="-E5_0" departPos="5.10" departSpeed="0.00" departDelay="1.00" arrival="65.00" arrivalLane="E9_0" arrivalPos="83.20" arrivalSpeed="12.20" duration="59.00" routeLength="345.86" waitingTime="19.00" waitingCount="1" stopTime="0.00" timeLoss="30.02" rerouteNo="1" devices="tripinfo_f_24.0 routing_f_24.0" vType="DEFAULT_VEHTYPE" speedFactor="0.91" vaporized=""/>
    <tripinfo id="f_100.2" depart="46.00" departLane="-E23_0" departPos="5.10" departSpeed="0.00" departDelay="27.00" arrival="65.00" arrivalLane="E13_0" arrivalPos="83.20" arrivalSpeed="14.07" duration="19.00" routeLength="170.33" waitingTime="0.00" waitingCount="0" stopTime="0.00" timeLoss="5.66" rerouteNo="0" devices="tripinfo_f_100.2 routing_f_100.2" vType="DEFAULT_VEHTYPE" speedFactor="1.01" vaporized=""/>
    <tripinfo id="f_21.0" depart="11.00" departLane="-E9_0" departPos="5.10" departSpeed="0.00" departDelay="6.00" arrival="66.00" arrivalLane="E16_0" arrivalPos="83.20" arrivalSpeed="11.32" duration="55.00" routeLength="491.27" waitingTime="3.00" waitingCount="1" stopTime="0.00" timeLoss="14.08" rerouteNo="1" devices="tripinfo_f_21.0 routing_f_21.0" vType="DEFAULT_VEHTYPE" speedFactor="0.88" vaporized=""/>
    <tripinfo id="f_90.0" depart="22.00" departLane="-E13_0" departPos="5.10" departSpeed="0.00" departDelay="15.00" arrival="66.00" arrivalLane="E15_0" arrivalPos="83.20" arrivalSpeed="14.53" duration="44.00" routeLength="345.86" waitingTime="5.00" waitingCount="1" stopTime="0.00" timeLoss="18.36" rerouteNo="1" devices="tripinfo_f_90.0 routing_f_90.0" vType="DEFAULT_VEHTYPE" speedFactor="1.06" vaporized=""/>
    <tripinfo id="f_76.1" depart="22.00" departLane="-E15_0" departPos="5.10" departSpeed="0.00" departDelay="13.00" arrival="66.00" arrivalLane="E23_0" arrivalPos="83.20" arrivalSpeed="14.48" duration="44.00" routeLength="391.17" waitingTime="0.00" waitingCount="0" stopTime="0.00" timeLoss="16.27" rerouteNo="1" devices="tripinfo_f_76.1 routing_f_76.1" vType="DEFAULT_VEHTYPE" speedFactor="1.07" vaporized=""/>
    <tripinfo id="f_34.2" depart="48.00" departLane="-E6_0" departPos="5.10" departSpeed="0.00" departDelay="19.00" arrival="66.00" arrivalLane="E5_0" arrivalPos="83.20" arrivalSpeed="14.60" duration="18.00" routeLength="170.33" waitingTime="0.00" waitingCount="0" stopTime="0.00" timeLoss="5.65" rerouteNo="0" devices="tripinfo_f_34.2 routing_f_34.2" vType="DEFAULT_VEHTYPE" speedFactor="1.06" vaporized=""/>
    <tripinfo id="f_122.0" depart="29.00" departLane="-E7_0" departPos="5.10" departSpeed="0.00" departDelay="15.00" arrival="67.00" arrivalLane="E9_3" arrivalPos="83.20" arrivalSpeed="13.80" duration="38.00" routeLength="190.97" waitingTime="9.00" waitingCount="3" stopTime="0.00" timeLoss="24.02" rerouteNo="0" devices="tripinfo_f_122.0 routing_f_122.0" vType="DEFAULT_VEHTYPE" speedFactor="1.08" vaporized=""/>
    <tripinfo id="f_101.1" depart="6.00" departLane="-E23_0" departPos="5.10" departSpeed="0.00" departDelay="3.00" arrival="68.00" arrivalLane="E14_0" arrivalPos="83.20" arrivalSpeed="13.45" duration="62.00" routeLength="270.43" waitingTime="30.00" waitingCount="1" stopTime="0.00" timeLoss="42.65" rerouteNo="1" devices="tripinfo_f_101.1 routing_f_101.1" vType="DEFAULT_VEHTYPE" speedFactor="1.04" vaporized=""/>
    <tripinfo id="f_75.1" depart="10.00" departLane="-E15_0" departPos="5.10" departSpeed="0.00" departDelay="7.00" arrival="68.00" arrivalLane="E22_0" arrivalPos="83.20" arrivalSpeed="11.46" duration="58.00" routeLength="491.27" waitingTime="1.00" waitingCount="1" stopTime="0.00" timeLoss="15.61" rerouteNo="1" devices="tripinfo_f_75.1 routing_f_75.1" vType="DEFAULT_VEHTYPE" speedFactor="0.85" vaporized=""/>
    <tripinfo id="f_35.1" depart="14.00" departLane="-E6_0" departPos="5.10" departSpeed="0.00" departDelay="3.00" arrival="68.00" arrivalLane="E3_0" arrivalPos="83.20" arrivalSpeed="11.08" duration="54.00" routeLength="270.43" waitingTime="21.00" waitingCount="1" stopTime="0.00" timeLoss="30.47" rerouteNo="1" devices="tripinfo_f_35.1 routing_f_35.1" vType="DEFAULT_VEHTYPE" speedFactor="0.89" vaporized=""/>
    <tripinfo id="f_66.1" depart="47.00" departLane="-E22_0" departPos="5.10" departSpeed="0.00" departDelay="0.00" arrival="68.00" arrivalLane="E22_3" arrivalPos="83.20" arrivalSpeed="13.63" duration="21.00" routeLength="165.97" waitingTime="0.00" waitingCount="0" stopTime="0.00" timeLoss="8.73" rerouteNo="0" devices="tripinfo_f_66.1 routing_f_66.1" vType="DEFAULT_VEHTYPE" speedFactor="1.06" vaporized=""/>
    <tripinfo id="f_22.0" depart="28.00" departLane="-E9_0" departPos="5.10" departSpeed="0.00" departDelay="15.00" arrival="69.00" arrivalLane="E6_2" arrivalPos="83.20" arrivalSpeed="14.87" duration="41.00" routeLength="391.17" waitingTime="0.00" waitingCount="0" stopTime="0.00" timeLoss="14.28" rerouteNo="1" devices="tripinfo_f_22.0 routing_f_22.0" vType="DEFAULT_VEHTYPE" speedFactor="1.09" vaporized=""/>
    <tripinfo id="f_122.1" depart="44.00" departLane="-E7_0" departPos="5.10" departSpeed="0.00" departDelay="25.00" arrival="69.00" arrivalLane="E9_3" arrivalPos="83.20" arrivalSpeed="14.30" duration="25.00" routeLength="190.97" waitingTime="1.00" waitingCount="1" stopTime="0.00" timeLoss="10.60" rerouteNo="0" devices="tripinfo_f_122.1 routing_f_122.1" vType="DEFAULT_VEHTYPE" speedFactor="1.04" vaporized=""/>
    <tripinfo id="f_35.2" depart="16.00" departLane="-E6_0" departPos="5.10" departSpeed="0.00" departDelay="4.00" arrival="71.00" arrivalLane="E3_0" arrivalPos="83.20" arrivalSpeed="11.43" duration="55.00" routeLength="270.43" waitingTime="20.00" waitingCount="1" stopTime="0.00" timeLoss="31.64" rerouteNo="1" devices="tripinfo_f_35.2 routing_f_35.2" vType="DEFAULT_VEHTYPE" speedFactor="0.88" vaporized=""/>
    <tripinfo id="f_66.2" depart="50.00" departLane="-E22_0" departPos="5.10" departSpeed="0.00" departDelay="0.00" arrival="71.00" arrivalLane="E22_3" arrivalPos="83.20" arrivalSpeed="12.92" duration="21.00" routeLength="165.97" waitingTime="0.00" waitingCount="0" stopTime="0.00" timeLoss="8.01" rerouteNo="0" devices="tripinfo_f_66.2 routing_f_66.2" vType="DEFAULT_VEHTYPE" speedFactor="0.98" vaporized=""/>
    <tripinfo id="f_103.0" depart="7.00" departLane="-E23_0" departPos="5.10" departSpeed="0.00" departDelay="4.00" arrival="72.00" arrivalLane="E17_2" arrivalPos="83.20" arrivalSpeed="14.11" duration="65.00" routeLength="395.20" waitingTime="24.00" waitingCount="1" stopTime="0.00" timeLoss="37.50" rerouteNo="1" devices="tripinfo_f_103.0 routing_f_103.0" vType="DEFAULT_VEHTYPE" speedFactor="1.04" vaporized=""/>
    <tripinfo id="f_102.0" depart="0.00" departLane="-E23_0" departPos="5.10" departSpeed="0.00" departDelay="0.00" arrival="73.00" arrivalLane="E15_0" arrivalPos="83.20" arrivalSpeed="11.81" duration="73.00" routeLength="370.53" waitingTime="32.00" waitingCount="1" stopTime="0.00" timeLoss="43.55" rerouteNo="1" devices="tripinfo_f_102.0 routing_f_102.0" vType="DEFAULT_VEHTYPE" speedFactor="0.94" vaporized=""/>
    <tripinfo id="f_65.0" depart="31.00" departLane="-E16_0" departPos="5.10" departSpeed="0.00" departDelay="23.00" arrival="73.00" arrivalLane="E16_3" arrivalPos="83.20" arrivalSpeed="14.39" duration="42.00" routeLength="165.97" waitingTime="6.00" waitingCount="2" stopTime="0.00" timeLoss="28.97" rerouteNo="0" devices="tripinfo_f_65.0 routing_f_65.0" vType="DEFAULT_VEHTYPE" speedFactor="1.06" vaporized=""/>
    <tripinfo id="f_35.3" depart="24.00" departLane="-E6_0" departPos="5.10" departSpeed="0.00" departDelay="8.00" arrival="73.00" arrivalLane="E3_0" arrivalPos="83.20" arrivalSpeed="13.38" duration="49.00" routeLength="270.43" waitingTime="12.00" waitingCount="1" stopTime="0.00" timeLoss="28.22" rerouteNo="1" devices="tripinfo_f_35.3 routing_f_35.3" vType="DEFAULT_VEHTYPE" speedFactor="1.00" vaporized=""/>
    <tripinfo id="f_48.0" depart="34.00" departLane="-E16_0" departPos="5.10" departSpeed="0.00" departDelay="23.00" arrival="76.00" arrivalLane="E22_0" arrivalPos="83.20" arrivalSpeed="12.81" duration="42.00" routeLength="395.20" waitingTime="3.00" waitingCount="1" stopTime="0.00" timeLoss="12.73" rerouteNo="1" devices="tripinfo_f_48.0 routing_f_48.0" vType="DEFAULT_VEHTYPE" speedFactor="1.00" vaporized=""/>
    <tripinfo id="f_121.0" depart="17.00" departLane="-E7_0" departPos="5.10" departSpeed="0.00" departDelay="7.00" arrival="77.00" arrivalLane="E3_3" arrivalPos="83.20" arrivalSpeed="13.47" duration="60.00" routeLength="291.07" waitingTime="25.00" waitingCount="2" stopTime="0.00" timeLoss="39.65" rerouteNo="1" devices="tripinfo_f_121.0 routing_f_121.0" vType="DEFAULT_VEHTYPE" speedFactor="1.06" vaporized=""/>
    <tripinfo id="f_103.1" depart="24.00" departLane="-E23_0" departPos="5.10" departSpeed="0.00" departDelay="12.00" arrival="77.00" arrivalLane="E17_2" arrivalPos="83.20" arrivalSpeed="13.53" duration="53.00" routeLength="395.20" waitingTime="12.00" waitingCount="1" stopTime="0.00" timeLoss="24.21" rerouteNo="1" devices="tripinfo_f_103.1 routing_f_103.1" vType="DEFAULT_VEHTYPE" speedFactor="1.00" vaporized=""/>
    <tripinfo id="f_48.1" depart="39.00" departLane="-E16_0" departPos="5.10" departSpeed="0.00" departDelay="27.00" arrival="77.00" arrivalLane="E22_0" arrivalPos="83.20" arrivalSpeed="15.15" duration="38.00" routeLength="395.20" waitingTime="0.00" waitingCount="0" stopTime="0.00" timeLoss="12.48" rerouteNo="1" devices="tripinfo_f_48.1 routing_f_48.1" vType="DEFAULT_VEHTYPE" speedFactor="1.13" vaporized=""/>