<?xml version="1.0" encoding="UTF-8"?>

<!-- generated on 2022-11-15 18:08:21 by Eclipse SUMO sumo Version 1.14.1
<configuration xmlns:xsi="http://www.w3.org/2001/XMLSchema-instance" xsi:noNamespaceSchemaLocation="http://sumo.dlr.de/xsd/sumoConfiguration.xsd">

    <input>
        <net-file value="network.net.xml"/>
        <route-files value="routes_0.01.rou.xml"/>
    </input>

    <output>
        <tripinfo-output value=".\data\tripInfo0.01.xml"/>
    </output>

    <time>
        <begin value="0"/>
        <end value="3500"/>
    </time>

    <report>
        <no-warnings value="true"/>
    </report>

</configuration>
-->

<tripinfos xmlns:xsi="http://www.w3.org/2001/XMLSchema-instance" xsi:noNamespaceSchemaLocation="http://sumo.dlr.de/xsd/tripinfo_file.xsd">
    <tripinfo id="f_99.0" depart="5.00" departLane="-E13_0" departPos="5.10" departSpeed="0.00" departDelay="0.00" arrival="27.00" arrivalLane="E23_3" arrivalPos="83.20" arrivalSpeed="10.48" duration="22.00" routeLength="190.97" waitingTime="0.00" waitingCount="0" stopTime="0.00" timeLoss="4.57" rerouteNo="0" devices="tripinfo_f_99.0 routing_f_99.0" vType="DEFAULT_VEHTYPE" speedFactor="0.83" vaporized=""/>
    <tripinfo id="f_86.0" depart="23.00" departLane="-E14_0" departPos="5.10" departSpeed="0.00" departDelay="0.00" arrival="53.00" arrivalLane="E22_2" arrivalPos="83.20" arrivalSpeed="15.01" duration="30.00" routeLength="391.17" waitingTime="0.00" waitingCount="0" stopTime="0.00" timeLoss="4.64" rerouteNo="1" devices="tripinfo_f_86.0 routing_f_86.0" vType="DEFAULT_VEHTYPE" speedFactor="1.15" vaporized=""/>
    <tripinfo id="f_10.0" depart="15.00" departLane="-E3_0" departPos="5.10" departSpeed="0.00" departDelay="0.00" arrival="54.00" arrivalLane="E9_0" arrivalPos="83.20" arrivalSpeed="14.03" duration="39.00" routeLength="245.76" waitingTime="10.00" waitingCount="1" stopTime="0.00" timeLoss="19.99" rerouteNo="0" devices="tripinfo_f_10.0 routing_f_10.0" vType="DEFAULT_VEHTYPE" speedFactor="1.01" vaporized=""/>
    <tripinfo id="f_66.0" depart="1.00" departLane="-E22_0" departPos="5.10" departSpeed="0.00" departDelay="0.00" arrival="55.00" arrivalLane="E22_3" arrivalPos="83.20" arrivalSpeed="13.44" duration="54.00" routeLength="165.97" waitingTime="31.00" waitingCount="1" stopTime="0.00" timeLoss="40.70" rerouteNo="0" devices="tripinfo_f_66.0 routing_f_66.0" vType="DEFAULT_VEHTYPE" speedFactor="1.01" vaporized=""/>
    <tripinfo id="f_65.0" depart="8.00" departLane="-E16_0" departPos="5.10" departSpeed="0.00" departDelay="0.00" arrival="55.00" arrivalLane="E16_3" arrivalPos="83.20" arrivalSpeed="13.67" duration="47.00" routeLength="165.97" waitingTime="24.00" waitingCount="1" stopTime="0.00" timeLoss="33.81" rerouteNo="0" devices="tripinfo_f_65.0 routing_f_65.0" vType="DEFAULT_VEHTYPE" speedFactor="0.99" vaporized=""/>
    <tripinfo id="f_34.0" depart="23.00" departLane="-E6_0" departPos="5.10" departSpeed="0.00" departDelay="0.00" arrival="55.00" arrivalLane="E5_0" arrivalPos="83.20" arrivalSpeed="12.07" duration="32.00" routeLength="170.33" waitingTime="9.00" waitingCount="1" stopTime="0.00" timeLoss="17.46" rerouteNo="0" devices="tripinfo_f_34.0 routing_f_34.0" vType="DEFAULT_VEHTYPE" speedFactor="0.93" vaporized=""/>
    <tripinfo id="f_64.0" depart="38.00" departLane="-E17_0" departPos="5.10" departSpeed="0.00" departDelay="0.00" arrival="59.00" arrivalLane="E15_3" arrivalPos="83.20" arrivalSpeed="13.71" duration="21.00" routeLength="190.97" waitingTime="0.00" waitingCount="0" stopTime="0.00" timeLoss="6.53" rerouteNo="0" devices="tripinfo_f_64.0 routing_f_64.0" vType="DEFAULT_VEHTYPE" speedFactor="1.02" vaporized=""/>
    <tripinfo id="f_14.0" depart="14.00" departLane="-E9_0" departPos="5.10" departSpeed="0.00" departDelay="0.00" arrival="62.00" arrivalLane="E6_0" arrivalPos="83.20" arrivalSpeed="15.47" duration="48.00" routeLength="391.17" waitingTime="10.00" waitingCount="1" stopTime="0.00" timeLoss="22.61" rerouteNo="0" devices="tripinfo_f_14.0 routing_f_14.0" vType="DEFAULT_VEHTYPE" speedFactor="1.16" vaporized=""/>
    <tripinfo id="f_88.0" depart="30.00" departLane="-E14_0" departPos="5.10" departSpeed="0.00" departDelay="0.00" arrival="62.00" arrivalLane="E13_3" arrivalPos="83.20" arrivalSpeed="14.47" duration="32.00" routeLength="287.04" waitingTime="2.00" waitingCount="1" stopTime="0.00" timeLoss="11.66" rerouteNo="1" devices="tripinfo_f_88.0 routing_f_88.0" vType="DEFAULT_VEHTYPE" speedFactor="1.09" vaporized=""/>
    <tripinfo id="f_92.0" depart="2.00" departLane="-E13_0" departPos="5.10" departSpeed="0.00" departDelay="0.00" arrival="64.00" arrivalLane="E17_0" arrivalPos="83.20" arrivalSpeed="13.91" duration="62.00" routeLength="370.53" waitingTime="24.00" waitingCount="1" stopTime="0.00" timeLoss="34.74" rerouteNo="1" devices="tripinfo_f_92.0 routing_f_92.0" vType="DEFAULT_VEHTYPE" speedFactor="1.03" vaporized=""/>
    <tripinfo id="f_77.0" depart="8.00" departLane="-E15_0" departPos="5.10" departSpeed="0.00" departDelay="2.00" arrival="64.00" arrivalLane="E13_3" arrivalPos="83.20" arrivalSpeed="14.47" duration="56.00" routeLength="387.14" waitingTime="16.00" waitingCount="1" stopTime="0.00" timeLoss="29.04" rerouteNo="1" devices="tripinfo_f_77.0 routing_f_77.0" vType="DEFAULT_VEHTYPE" speedFactor="1.09" vaporized=""/>
    <tripinfo id="f_22.0" depart="22.00" departLane="-E9_0" departPos="5.10" departSpeed="0.00" departDelay="0.00" arrival="64.00" arrivalLane="E6_2" arrivalPos="83.20" arrivalSpeed="15.61" duration="42.00" routeLength="391.17" waitingTime="2.00" waitingCount="1" stopTime="0.00" timeLoss="16.51" rerouteNo="1" devices="tripinfo_f_22.0 routing_f_22.0" vType="DEFAULT_VEHTYPE" speedFactor="1.13" vaporized=""/>
    <tripinfo id="f_94.0" depart="7.00" departLane="-E13_0" departPos="5.10" departSpeed="0.00" departDelay="0.00" arrival="65.00" arrivalLane="E5_3" arrivalPos="83.20" arrivalSpeed="14.07" duration="58.00" routeLength="566.70" waitingTime="3.00" waitingCount="1" stopTime="0.00" timeLoss="17.65" rerouteNo="1" devices="tripinfo_f_94.0 routing_f_94.0" vType="DEFAULT_VEHTYPE" speedFactor="1.05" vaporized=""/>
    <tripinfo id="f_76.0" depart="21.00" departLane="-E15_0" departPos="5.10" departSpeed="0.00" departDelay="0.00" arrival="66.00" arrivalLane="E23_2" arrivalPos="83.20" arrivalSpeed="12.39" duration="45.00" routeLength="391.17" waitingTime="4.00" waitingCount="1" stopTime="0.00" timeLoss="14.77" rerouteNo="1" devices="tripinfo_f_76.0 routing_f_76.0" vType="DEFAULT_VEHTYPE" speedFactor="0.95" vaporized=""/>
    <tripinfo id="f_121.0" depart="29.00" departLane="-E7_0" departPos="5.10" departSpeed="0.00" departDelay="0.00" arrival="67.00" arrivalLane="E3_3" arrivalPos="83.20" arrivalSpeed="11.59" duration="38.00" routeLength="291.07" waitingTime="3.00" waitingCount="1" stopTime="0.00" timeLoss="13.47" rerouteNo="1" devices="tripinfo_f_121.0 routing_f_121.0" vType="DEFAULT_VEHTYPE" speedFactor="0.90" vaporized=""/>
    <tripinfo id="f_76.1" depart="31.00" departLane="-E15_0" departPos="5.10" departSpeed="0.00" departDelay="0.00" arrival="68.00" arrivalLane="E23_2" arrivalPos="83.20" arrivalSpeed="13.24" duration="37.00" routeLength="391.17" waitingTime="0.00" waitingCount="0" stopTime="0.00" timeLoss="8.99" rerouteNo="1" devices="tripinfo_f_76.1 routing_f_76.1" vType="DEFAULT_VEHTYPE" speedFactor="1.04" vaporized=""/>
    <tripinfo id="f_61.0" depart="41.00" departLane="-E17_0" departPos="5.10" departSpeed="0.00" departDelay="0.00" arrival="72.00" arrivalLane="E23_2" arrivalPos="83.20" arrivalSpeed="15.33" duration="31.00" routeLength="395.20" waitingTime="0.00" waitingCount="0" stopTime="0.00" timeLoss="5.40" rerouteNo="1" devices="tripinfo_f_61.0 routing_f_61.0" vType="DEFAULT_VEHTYPE" speedFactor="1.14" vaporized=""/>
    <tripinfo id="f_48.0" depart="11.00" departLane="-E16_0" departPos="5.10" departSpeed="0.00" departDelay="0.00" arrival="73.00" arrivalLane="E22_0" arrivalPos="83.20" arrivalSpeed="13.07" duration="62.00" routeLength="395.20" waitingTime="20.00" waitingCount="1" stopTime="0.00" timeLoss="30.91" rerouteNo="1" devices="tripinfo_f_48.0 routing_f_48.0" vType="DEFAULT_VEHTYPE" speedFactor="0.94" vaporized=""/>
    <tripinfo id="f_66.1" depart="50.00" departLane="-E22_0" departPos="5.10" departSpeed="0.00" departDelay="0.00" arrival="73.00" arrivalLane="E22_3" arrivalPos="83.20" arrivalSpeed="11.30" duration="23.00" routeLength="165.97" waitingTime="1.00" waitingCount="1" stopTime="0.00" timeLoss="8.52" rerouteNo="0" devices="tripinfo_f_66.1 routing_f_66.1" vType="DEFAULT_VEHTYPE" speedFactor="0.88" vaporized=""/>
    <tripinfo id="f_62.0" depart="6.00" departLane="-E17_0" departPos="5.10" departSpeed="0.00" departDelay="0.00" arrival="74.00" arrivalLane="E13_3" arrivalPos="83.20" arrivalSpeed="12.41" duration="68.00" routeLength="391.17" waitingTime="26.00" waitingCount="1" stopTime="0.00" timeLoss="37.07" rerouteNo="1" devices="tripinfo_f_62.0 routing_f_62.0" vType="DEFAULT_VEHTYPE" speedFactor="0.94" vaporized=""/>
    <tripinfo id="f_61.1" depart="52.00" departLane="-E17_0" departPos="5.10" departSpeed="0.00" departDelay="0.00" arrival="85.00" arrivalLane="E23_0" arrivalPos="83.20" arrivalSpeed="14.22" duration="33.00" routeLength="395.20" waitingTime="0.00" waitingCount="0" stopTime="0.00" timeLoss="4.80" rerouteNo="1" devices="tripinfo_f_61.1 routing_f_61.1" vType="DEFAULT_VEHTYPE" speedFactor="1.04" vaporized=""/>
    <tripinfo id="f_54.0" depart="13.00" departLane="-E17_0" departPos="5.10" departSpeed="0.00" departDelay="0.00" arrival="99.00" arrivalLane="E16_0" arrivalPos="83.20" arrivalSpeed="12.93" duration="86.00" routeLength="245.76" waitingTime="54.00" waitingCount="2" stopTime="0.00" timeLoss="66.06" rerouteNo="1" devices="tripinfo_f_54.0 routing_f_54.0" vType="DEFAULT_VEHTYPE" speedFactor="0.94" vaporized=""/>
    <tripinfo id="f_68.0" depart="43.00" departLane="-E15_0" departPos="5.10" departSpeed="0.00" departDelay="0.00" arrival="99.00" arrivalLane="E17_0" arrivalPos="83.20" arrivalSpeed="13.63" duration="56.00" routeLength="170.33" waitingTime="35.00" waitingCount="1" stopTime="0.00" timeLoss="43.50" rerouteNo="0" devices="tripinfo_f_68.0 routing_f_68.0" vType="DEFAULT_VEHTYPE" speedFactor="1.02" vaporized=""/>
    <tripinfo id="f_47.0" depart="2.00" departLane="-E16_0" departPos="5.10" departSpeed="0.00" departDelay="0.00" arrival="101.00" arrivalLane="E9_0" arrivalPos="83.20" arrivalSpeed="14.92" duration="99.00" routeLength="470.63" waitingTime="46.00" waitingCount="2" stopTime="0.00" timeLoss="66.53" rerouteNo="1" devices="tripinfo_f_47.0 routing_f_47.0" vType="DEFAULT_VEHTYPE" speedFactor="1.08" vaporized=""/>
    <tripinfo id="f_70.0" depart="6.00" departLane="-E15_0" departPos="5.10" departSpeed="0.00" departDelay="0.00" arrival="101.00" arrivalLane="E6_0" arrivalPos="83.20" arrivalSpeed="10.83" duration="95.00" routeLength="370.53" waitingTime="53.00" waitingCount="1" stopTime="0.00" timeLoss="62.61" rerouteNo="1" devices="tripinfo_f_70.0 routing_f_70.0" vType="DEFAULT_VEHTYPE" speedFactor="0.86" vaporized=""/>
    <tripinfo id="f_45.0" depart="23.00" departLane="-E16_0" departPos="5.10" departSpeed="0.00" departDelay="0.00" arrival="101.00" arrivalLane="E5_0" arrivalPos="83.20" arrivalSpeed="15.26" duration="78.00" routeLength="270.43" waitingTime="45.00" waitingCount="2" stopTime="0.00" timeLoss="60.38" rerouteNo="1" devices="tripinfo_f_45.0 routing_f_45.0" vType="DEFAULT_VEHTYPE" speedFactor="1.18" vaporized=""/>
    <tripinfo id="f_46.0" depart="6.00" departLane="-E16_0" departPos="5.10" departSpeed="0.00" departDelay="0.00" arrival="102.00" arrivalLane="E3_0" arrivalPos="83.20" arrivalSpeed="12.00" duration="96.00" routeLength="370.53" waitingTime="49.00" waitingCount="2" stopTime="0.00" timeLoss="64.43" rerouteNo="1" devices="tripinfo_f_46.0 routing_f_46.0" vType="DEFAULT_VEHTYPE" speedFactor="0.89" vaporized=""/>
    <tripinfo id="f_51.0" depart="26.00" departLane="-E16_0" departPos="5.10" departSpeed="0.00" departDelay="2.00" arrival="102.00" arrivalLane="E14_0" arrivalPos="83.20" arrivalSpeed="13.51" duration="76.00" routeLength="391.07" waitingTime="29.00" waitingCount="2" stopTime="0.00" timeLoss="46.66" rerouteNo="1" devices="tripinfo_f_51.0 routing_f_51.0" vType="DEFAULT_VEHTYPE" speedFactor="1.01" vaporized=""/>
    <tripinfo id="f_54.1" depart="28.00" departLane="-E17_0" departPos="5.10" departSpeed="0.00" departDelay="0.00" arrival="102.00" arrivalLane="E16_0" arrivalPos="83.20" arrivalSpeed="15.22" duration="74.00" routeLength="245.76" waitingTime="39.00" waitingCount="2" stopTime="0.00" timeLoss="55.53" rerouteNo="1" devices="tripinfo_f_54.1 routing_f_54.1" vType="DEFAULT_VEHTYPE" speedFactor="1.10" vaporized=""/>
    <tripinfo id="f_52.0" depart="41.00" departLane="-E16_0" departPos="5.10" departSpeed="0.00" departDelay="0.00" arrival="102.00" arrivalLane="E15_0" arrivalPos="83.20" arrivalSpeed="12.45" duration="61.00" routeLength="291.07" waitingTime="27.00" waitingCount="1" stopTime="0.00" timeLoss="36.58" rerouteNo="1" devices="tripinfo_f_52.0 routing_f_52.0" vType="DEFAULT_VEHTYPE" speedFactor="0.90" vaporized=""/>
    <tripinfo id="f_68.1" depart="67.00" departLane="-E15_0" departPos="5.10" departSpeed="0.00" departDelay="0.00" arrival="102.00" arrivalLane="E17_0" arrivalPos="83.20" arrivalSpeed="13.05" duration="35.00" routeLength="170.33" waitingTime="13.00" waitingCount="1" stopTime="0.00" timeLoss="21.54" rerouteNo="0" devices="tripinfo_f_68.1 routing_f_68.1" vType="DEFAULT_VEHTYPE" speedFactor="1.00" vaporized=""/>
    <tripinfo id="f_50.0" depart="17.00" departLane="-E16_0" departPos="5.10" departSpeed="0.00" departDelay="0.00" arrival="103.00" arrivalLane="E13_0" arrivalPos="83.20" arrivalSpeed="10.50" duration="86.00" routeLength="491.27" waitingTime="25.00" waitingCount="2" stopTime="0.00" timeLoss="41.93" rerouteNo="1" devices="tripinfo_f_50.0 routing_f_50.0" vType="DEFAULT_VEHTYPE" speedFactor="0.83" vaporized=""/>
    <tripinfo id="f_39.0" depart="9.00" departLane="-E6_0" departPos="5.10" departSpeed="0.00" departDelay="1.00" arrival="105.00" arrivalLane="E16_3" arrivalPos="83.20" arrivalSpeed="15.30" duration="96.00" routeLength="287.04" waitingTime="57.00" waitingCount="3" stopTime="0.00" timeLoss="76.13" rerouteNo="1" devices="tripinfo_f_39.0 routing_f_39.0" vType="DEFAULT_VEHTYPE" speedFactor="1.12" vaporized=""/>
    <tripinfo id="f_107.0" depart="0.00" departLane="-E23_0" departPos="5.10" departSpeed="0.00" departDelay="0.00" arrival="108.00" arrivalLane="E3_0" arrivalPos="83.20" arrivalSpeed="13.69" duration="108.00" routeLength="491.27" waitingTime="51.00" waitingCount="3" stopTime="0.00" timeLoss="73.76" rerouteNo="1" devices="tripinfo_f_107.0 routing_f_107.0" vType="DEFAULT_VEHTYPE" speedFactor="1.06" vaporized=""/>
    <tripinfo id="f_42.0" depart="6.00" departLane="-E6_0" departPos="5.10" departSpeed="0.00" departDelay="0.00" arrival="108.00" arrivalLane="E14_1" arrivalPos="83.20" arrivalSpeed="13.27" duration="102.00" routeLength="491.17" waitingTime="50.00" waitingCount="2" stopTime="0.00" timeLoss="67.10" rerouteNo="1" devices="tripinfo_f_42.0 routing_f_42.0" vType="DEFAULT_VEHTYPE" speedFactor="1.05" vaporized=""/>
    <tripinfo id="f_53.0" depart="21.00" departLane="-E16_0" departPos="5.10" departSpeed="0.00" departDelay="0.00" arrival="109.00" arrivalLane="E17_3" arrivalPos="83.20" arrivalSpeed="11.73" duration="88.00" routeLength="287.04" waitingTime="45.00" waitingCount="3" stopTime="0.00" timeLoss="63.73" rerouteNo="1" devices="tripinfo_f_53.0 routing_f_53.0" vType="DEFAULT_VEHTYPE" speedFactor="0.92" vaporized=""/>
    <tripinfo id="f_58.0" depart="26.00" departLane="-E17_0" departPos="5.10" departSpeed="0.00" departDelay="0.00" arrival="109.00" arrivalLane="E9_2" arrivalPos="83.20" arrivalSpeed="12.43" duration="83.00" routeLength="570.73" waitingTime="21.00" waitingCount="2" stopTime="0.00" timeLoss="39.64" rerouteNo="1" devices="tripinfo_f_58.0 routing_f_58.0" vType="DEFAULT_VEHTYPE" speedFactor="0.97" vaporized=""/>
    <tripinfo id="f_56.0" depart="31.00" departLane="-E17_0" departPos="5.10" departSpeed="0.00" departDelay="2.00" arrival="109.00" arrivalLane="E5_0" arrivalPos="83.20" arrivalSpeed="14.31" duration="78.00" routeLength="370.53" waitingTime="31.00" waitingCount="2" stopTime="0.00" timeLoss="50.73" rerouteNo="1" devices="tripinfo_f_56.0 routing_f_56.0" vType="DEFAULT_VEHTYPE" speedFactor="1.03" vaporized=""/>
    <tripinfo id="f_69.0" depart="32.00" departLane="-E15_0" departPos="5.10" departSpeed="0.00" departDelay="0.00" arrival="109.00" arrivalLane="E16_0" arrivalPos="83.20" arrivalSpeed="14.17" duration="77.00" routeLength="270.43" waitingTime="46.00" waitingCount="1" stopTime="0.00" timeLoss="56.67" rerouteNo="1" devices="tripinfo_f_69.0 routing_f_69.0" vType="DEFAULT_VEHTYPE" speedFactor="1.04" vaporized=""/>
    <tripinfo id="f_56.1" depart="34.00" departLane="-E17_0" departPos="5.10" departSpeed="0.00" departDelay="1.00" arrival="109.00" arrivalLane="E5_1" arrivalPos="83.20" arrivalSpeed="12.88" duration="75.00" routeLength="370.53" waitingTime="28.00" waitingCount="2" stopTime="0.00" timeLoss="46.62" rerouteNo="1" devices="tripinfo_f_56.1 routing_f_56.1" vType="DEFAULT_VEHTYPE" speedFactor="1.00" vaporized=""/>
    <tripinfo id="f_42.1" depart="7.00" departLane="-E6_0" departPos="5.10" departSpeed="0.00" departDelay="0.00" arrival="110.00" arrivalLane="E14_2" arrivalPos="83.20" arrivalSpeed="13.18" duration="103.00" routeLength="491.17" waitingTime="46.00" waitingCount="2" stopTime="0.00" timeLoss="67.56" rerouteNo="1" devices="tripinfo_f_42.1 routing_f_42.1" vType="DEFAULT_VEHTYPE" speedFactor="1.03" vaporized=""/>
    <tripinfo id="f_43.0" depart="52.00" departLane="-E6_0" departPos="5.10" departSpeed="0.00" departDelay="0.00" arrival="110.00" arrivalLane="E13_2" arrivalPos="83.20" arrivalSpeed="12.17" duration="58.00" routeLength="591.37" waitingTime="0.00" waitingCount="0" stopTime="0.00" timeLoss="10.25" rerouteNo="1" devices="tripinfo_f_43.0 routing_f_43.0" vType="DEFAULT_VEHTYPE" speedFactor="0.91" vaporized=""/>
    <tripinfo id="f_73.0" depart="10.00" departLane="-E15_0" departPos="5.10" departSpeed="0.00" departDelay="0.00" arrival="111.00" arrivalLane="E9_0" arrivalPos="83.20" arrivalSpeed="11.60" duration="101.00" routeLength="566.70" waitingTime="35.00" waitingCount="2" stopTime="0.00" timeLoss="52.68" rerouteNo="1" devices="tripinfo_f_73.0 routing_f_73.0" vType="DEFAULT_VEHTYPE" speedFactor="0.88" vaporized=""/>
    <tripinfo id="f_113.0" depart="37.00" departLane="-E7_0" departPos="5.10" departSpeed="0.00" departDelay="0.00" arrival="111.00" arrivalLane="E13_0" arrivalPos="83.20" arrivalSpeed="11.77" duration="74.00" routeLength="370.53" waitingTime="33.00" waitingCount="1" stopTime="0.00" timeLoss="41.20" rerouteNo="1" devices="tripinfo_f_113.0 routing_f_113.0" vType="DEFAULT_VEHTYPE" speedFactor="0.85" vaporized=""/>
    <tripinfo id="f_32.0" depart="40.00" departLane="-E5_0" departPos="5.10" departSpeed="0.00" departDelay="0.00" arrival="111.00" arrivalLane="E16_3" arrivalPos="83.20" arrivalSpeed="12.93" duration="71.00" routeLength="291.07" waitingTime="38.00" waitingCount="1" stopTime="0.00" timeLoss="49.49" rerouteNo="1" devices="tripinfo_f_32.0 routing_f_32.0" vType="DEFAULT_VEHTYPE" speedFactor="1.00" vaporized=""/>
    <tripinfo id="f_108.0" depart="72.00" departLane="-E23_0" departPos="5.10" departSpeed="0.00" departDelay="0.00" arrival="111.00" arrivalLane="E9_2" arrivalPos="83.20" arrivalSpeed="13.79" duration="39.00" routeLength="391.17" waitingTime="0.00" waitingCount="0" stopTime="0.00" timeLoss="10.39" rerouteNo="1" devices="tripinfo_f_108.0 routing_f_108.0" vType="DEFAULT_VEHTYPE" speedFactor="1.02" vaporized=""/>
    <tripinfo id="f_42.2" depart="34.00" departLane="-E6_0" departPos="5.10" departSpeed="0.00" departDelay="0.00" arrival="113.00" arrivalLane="E14_0" arrivalPos="83.20" arrivalSpeed="12.07" duration="79.00" routeLength="491.17" waitingTime="16.00" waitingCount="3" stopTime="0.00" timeLoss="38.85" rerouteNo="1" devices="tripinfo_f_42.2 routing_f_42.2" vType="DEFAULT_VEHTYPE" speedFactor="0.90" vaporized=""/>
    <tripinfo id="f_13.0" depart="25.00" departLane="-E9_0" departPos="5.10" departSpeed="0.00" departDelay="0.00" arrival="114.00" arrivalLane="E23_0" arrivalPos="83.20" arrivalSpeed="15.41" duration="89.00" routeLength="370.53" waitingTime="53.00" waitingCount="1" stopTime="0.00" timeLoss="65.62" rerouteNo="0" devices="tripinfo_f_13.0 routing_f_13.0" vType="DEFAULT_VEHTYPE" speedFactor="1.17" vaporized=""/>
    <tripinfo id="f_17.1" depart="40.00" departLane="-E9_0" departPos="5.10" departSpeed="0.00" departDelay="2.00" arrival="116.00" arrivalLane="E13_2" arrivalPos="83.20" arrivalSpeed="15.78" duration="76.00" routeLength="395.20" waitingTime="39.00" waitingCount="1" stopTime="0.00" timeLoss="51.00" rerouteNo="0" devices="tripinfo_f_17.1 routing_f_17.1" vType="DEFAULT_VEHTYPE" speedFactor="1.17" vaporized=""/>
    <tripinfo id="f_12.0" depart="63.00" departLane="-E9_0" departPos="5.10" departSpeed="0.00" departDelay="1.00" arrival="116.00" arrivalLane="E22_0" arrivalPos="83.20" arrivalSpeed="14.34" duration="53.00" routeLength="270.43" waitingTime="15.00" waitingCount="2" stopTime="0.00" timeLoss="33.61" rerouteNo="0" devices="tripinfo_f_12.0 routing_f_12.0" vType="DEFAULT_VEHTYPE" speedFactor="1.03" vaporized=""/>
    <tripinfo id="f_70.1" depart="65.00" departLane="-E15_0" departPos="5.10" departSpeed="0.00" departDelay="0.00" arrival="116.00" arrivalLane="E6_0" arrivalPos="83.20" arrivalSpeed="14.82" duration="51.00" routeLength="370.53" waitingTime="14.00" waitingCount="1" stopTime="0.00" timeLoss="26.88" rerouteNo="1" devices="tripinfo_f_70.1 routing_f_70.1" vType="DEFAULT_VEHTYPE" speedFactor="1.15" vaporized=""/>
    <tripinfo id="f_0.0" depart="26.00" departLane="-E3_0" departPos="5.10" departSpeed="0.00" departDelay="0.00" arrival="117.00" arrivalLane="E14_0" arrivalPos="83.20" arrivalSpeed="13.69" duration="91.00" routeLength="395.10" waitingTime="51.00" waitingCount="1" stopTime="0.00" timeLoss="61.49" rerouteNo="0" devices="tripinfo_f_0.0 routing_f_0.0" vType="DEFAULT_VEHTYPE" speedFactor="0.99" vaporized=""/>
    <tripinfo id="f_40.0" depart="45.00" departLane="-E6_0" departPos="5.10" departSpeed="0.00" departDelay="0.00" arrival="117.00" arrivalLane="E17_3" arrivalPos="83.20" arrivalSpeed="12.43" duration="72.00" routeLength="387.04" waitingTime="21.00" waitingCount="2" stopTime="0.00" timeLoss="41.58" rerouteNo="1" devices="tripinfo_f_40.0 routing_f_40.0" vType="DEFAULT_VEHTYPE" speedFactor="0.97" vaporized=""/>
    <tripinfo id="f_0.1" depart="49.00" departLane="-E3_0" departPos="5.10" departSpeed="0.00" departDelay="0.00" arrival="117.00" arrivalLane="E14_1" arrivalPos="83.20" arrivalSpeed="11.73" duration="68.00" routeLength="395.10" waitingTime="28.00" waitingCount="1" stopTime="0.00" timeLoss="37.61" rerouteNo="0" devices="tripinfo_f_0.1 routing_f_0.1" vType="DEFAULT_VEHTYPE" speedFactor="0.94" vaporized=""/>
    <tripinfo id="f_17.0" depart="30.00" departLane="-E9_0" departPos="5.10" departSpeed="0.00" departDelay="0.00" arrival="118.00" arrivalLane="E13_0" arrivalPos="83.20" arrivalSpeed="12.20" duration="88.00" routeLength="395.20" waitingTime="48.00" waitingCount="1" stopTime="0.00" timeLoss="57.52" rerouteNo="0" devices="tripinfo_f_17.0 routing_f_17.0" vType="DEFAULT_VEHTYPE" speedFactor="0.96" vaporized=""/>
    <tripinfo id="f_60.0" depart="9.00" departLane="-E17_0" departPos="5.10" departSpeed="0.00" departDelay="0.00" arrival="120.00" arrivalLane="E22_3" arrivalPos="83.20" arrivalSpeed="12.86" duration="111.00" routeLength="466.60" waitingTime="52.00" waitingCount="3" stopTime="0.00" timeLoss="72.42" rerouteNo="1" devices="tripinfo_f_60.0 routing_f_60.0" vType="DEFAULT_VEHTYPE" speedFactor="0.93" vaporized=""/>
    <tripinfo id="f_40.1" depart="65.00" departLane="-E6_0" departPos="5.10" departSpeed="0.00" departDelay="0.00" arrival="120.00" arrivalLane="E17_3" arrivalPos="83.20" arrivalSpeed="13.37" duration="55.00" routeLength="387.04" waitingTime="5.00" waitingCount="1" stopTime="0.00" timeLoss="24.81" rerouteNo="1" devices="tripinfo_f_40.1 routing_f_40.1" vType="DEFAULT_VEHTYPE" speedFactor="0.97" vaporized=""/>
    <tripinfo id="f_110.0" depart="46.00" departLane="-E23_0" departPos="5.10" departSpeed="0.00" departDelay="0.00" arrival="121.00" arrivalLane="E22_3" arrivalPos="83.20" arrivalSpeed="14.90" duration="75.00" routeLength="287.04" waitingTime="32.00" waitingCount="3" stopTime="0.00" timeLoss="54.77" rerouteNo="1" devices="tripinfo_f_110.0 routing_f_110.0" vType="DEFAULT_VEHTYPE" speedFactor="1.08" vaporized=""/>
    <tripinfo id="f_13.1" depart="38.00" departLane="-E9_0" departPos="5.10" departSpeed="0.00" departDelay="0.00" arrival="122.00" arrivalLane="E23_0" arrivalPos="83.20" arrivalSpeed="11.76" duration="84.00" routeLength="370.53" waitingTime="40.00" waitingCount="1" stopTime="0.00" timeLoss="51.76" rerouteNo="0" devices="tripinfo_f_13.1 routing_f_13.1" vType="DEFAULT_VEHTYPE" speedFactor="0.85" vaporized=""/>
    <tripinfo id="f_67.0" depart="82.00" departLane="-E3_0" departPos="5.10" departSpeed="0.00" departDelay="0.00" arrival="123.00" arrivalLane="E3_2" arrivalPos="83.20" arrivalSpeed="13.84" duration="41.00" routeLength="366.17" waitingTime="0.00" waitingCount="0" stopTime="0.00" timeLoss="15.60" rerouteNo="0" devices="tripinfo_f_67.0 routing_f_67.0" vType="DEFAULT_VEHTYPE" speedFactor="1.06" vaporized=""/>
    <tripinfo id="f_13.3" depart="61.00" departLane="-E9_0" departPos="5.10" departSpeed="0.00" departDelay="0.00" arrival="124.00" arrivalLane="E23_0" arrivalPos="83.20" arrivalSpeed="13.94" duration="63.00" routeLength="370.53" waitingTime="16.00" waitingCount="2" stopTime="0.00" timeLoss="35.59" rerouteNo="0" devices="tripinfo_f_13.3 routing_f_13.3" vType="DEFAULT_VEHTYPE" speedFactor="1.01" vaporized=""/>
    <tripinfo id="f_13.2" depart="47.00" departLane="-E9_0" departPos="5.10" departSpeed="0.00" departDelay="0.00" arrival="126.00" arrivalLane="E23_0" arrivalPos="83.20" arrivalSpeed="12.91" duration="79.00" routeLength="370.53" waitingTime="33.00" waitingCount="1" stopTime="0.00" timeLoss="50.97" rerouteNo="0" devices="tripinfo_f_13.2 routing_f_13.2" vType="DEFAULT_VEHTYPE" speedFactor="0.99" vaporized=""/>
    <tripinfo id="f_67.1" depart="84.00" departLane="-E3_0" departPos="5.10" departSpeed="0.00" departDelay="0.00" arrival="129.00" arrivalLane="E3_2" arrivalPos="83.20" arrivalSpeed="12.68" duration="45.00" routeLength="366.17" waitingTime="0.00" waitingCount="0" stopTime="0.00" timeLoss="15.99" rerouteNo="0" devices="tripinfo_f_67.1 routing_f_67.1" vType="DEFAULT_VEHTYPE" speedFactor="0.96" vaporized=""/>
    <tripinfo id="f_23.0" depart="79.00" departLane="-E5_0" departPos="5.10" departSpeed="0.00" departDelay="0.00" arrival="144.00" arrivalLane="E3_0" arrivalPos="83.20" arrivalSpeed="13.51" duration="65.00" routeLength="245.76" waitingTime="28.00" waitingCount="2" stopTime="0.00" timeLoss="46.17" rerouteNo="1" devices="tripinfo_f_23.0 routing_f_23.0" vType="DEFAULT_VEHTYPE" speedFactor="1.01" vaporized=""/>
    <tripinfo id="f_89.0" depart="38.00" departLane="-E13_0" departPos="5.10" departSpeed="0.00" departDelay="0.00" arrival="145.00" arrivalLane="E14_0" arrivalPos="83.20" arrivalSpeed="14.58" duration="107.00" routeLength="245.76" waitingTime="72.00" waitingCount="2" stopTime="0.00" timeLoss="89.04" rerouteNo="1" devices="tripinfo_f_89.0 routing_f_89.0" vType="DEFAULT_VEHTYPE" speedFactor="1.10" vaporized=""/>
    <tripinfo id="f_2.0" depart="52.00" departLane="-E3_0" departPos="5.10" departSpeed="0.00" departDelay="0.00" arrival="145.00" arrivalLane="E15_0" arrivalPos="83.20" arrivalSpeed="11.64" duration="93.00" routeLength="466.60" waitingTime="39.00" waitingCount="2" stopTime="0.00" timeLoss="54.10" rerouteNo="0" devices="tripinfo_f_2.0 routing_f_2.0" vType="DEFAULT_VEHTYPE" speedFactor="0.91" vaporized=""/>
    <tripinfo id="f_66.2" depart="106.00" departLane="-E22_0" departPos="5.10" departSpeed="0.00" departDelay="0.00" arrival="145.00" arrivalLane="E22_3" arrivalPos="83.20" arrivalSpeed="13.58" duration="39.00" routeLength="165.97" waitingTime="17.00" waitingCount="1" stopTime="0.00" timeLoss="25.92" rerouteNo="0" devices="tripinfo_f_66.2 routing_f_66.2" vType="DEFAULT_VEHTYPE" speedFactor="0.99" vaporized=""/>
    <tripinfo id="f_15.0" depart="1.00" departLane="-E9_0" departPos="5.10" departSpeed="0.00" departDelay="0.00" arrival="146.00" arrivalLane="E16_2" arrivalPos="83.20" arrivalSpeed="12.44" duration="145.00" routeLength="462.57" waitingTime="85.00" waitingCount="4" stopTime="0.00" timeLoss="108.11" rerouteNo="0" devices="tripinfo_f_15.0 routing_f_15.0" vType="DEFAULT_VEHTYPE" speedFactor="0.94" vaporized=""/>
    <tripinfo id="f_82.0" depart="14.00" departLane="-E14_0" departPos="5.10" departSpeed="0.00" departDelay="0.00" arrival="146.00" arrivalLane="E6_0" arrivalPos="83.20" arrivalSpeed="13.16" duration="132.00" routeLength="470.63" waitingTime="81.00" waitingCount="2" stopTime="0.00" timeLoss="97.95" rerouteNo="1" devices="tripinfo_f_82.0 routing_f_82.0" vType="DEFAULT_VEHTYPE" speedFactor="1.02" vaporized=""/>
    <tripinfo id="f_86.1" depart="54.00" departLane="-E14_0" departPos="5.10" departSpeed="0.00" departDelay="0.00" arrival="146.00" arrivalLane="E22_1" arrivalPos="83.20" arrivalSpeed="14.41" duration="92.00" routeLength="391.17" waitingTime="40.00" waitingCount="3" stopTime="0.00" timeLoss="64.45" rerouteNo="1" devices="tripinfo_f_86.1 routing_f_86.1" vType="DEFAULT_VEHTYPE" speedFactor="1.06" vaporized=""/>